  64  64   1   0
  0.4615015E+02  0.1122309E-08  0.1125469E-08  0.2690431E-08  0.1000000E-15
  1.000000000000000E-004
  CAR 
 unknown system                          
      6.60405717    -11.03524990  301     -1.36638141      1.00000000
    -11.035  0.0000E+00  0.0000E+00
    -10.976  0.0000E+00  0.0000E+00
    -10.918  0.0000E+00  0.0000E+00
    -10.859  0.0000E+00  0.0000E+00
    -10.800  0.0000E+00  0.0000E+00
    -10.741  0.0000E+00  0.0000E+00
    -10.682 -0.8574E-31 -0.5042E-32
    -10.624 -0.9531E-29 -0.5654E-30
    -10.565 -0.8986E-27 -0.5340E-28
    -10.506 -0.7103E-25 -0.4230E-26
    -10.447 -0.4715E-23 -0.2815E-24
    -10.388 -0.2629E-21 -0.1574E-22
    -10.330 -0.1230E-19 -0.7392E-21
    -10.271 -0.4835E-18 -0.2917E-19
    -10.212 -0.1536E-16 -0.9321E-18
    -10.153 -0.4280E-15 -0.2610E-16
    -10.094 -0.9900E-14 -0.6082E-15
    -10.036 -0.1923E-12 -0.1191E-13
     -9.977 -0.3132E-11 -0.1961E-12
     -9.918 -0.4279E-10 -0.2712E-11
     -9.859 -0.4902E-09 -0.3154E-10
     -9.800 -0.4711E-08 -0.3085E-09
     -9.742 -0.3796E-07 -0.2541E-08
     -9.683 -0.2566E-06 -0.1763E-07
     -9.624 -0.1454E-05 -0.1031E-06
     -9.565 -0.6896E-05 -0.5086E-06
     -9.507 -0.2730E-04 -0.2114E-05
     -9.448 -0.8970E-04 -0.7388E-05
     -9.389 -0.2415E-03 -0.2159E-04
     -9.330 -0.5191E-03 -0.5211E-04
     -9.271 -0.8362E-03 -0.1013E-03
     -9.213 -0.8027E-03 -0.1485E-03
     -9.154  0.3505E-03 -0.1279E-03
     -9.095  0.3477E-02  0.7659E-04
     -9.036  0.8869E-02  0.5981E-03
     -8.977  0.1581E-01  0.1527E-02
     -8.919  0.2279E-01  0.2867E-02
     -8.860  0.2810E-01  0.4519E-02
     -8.801  0.3004E-01  0.6285E-02
     -8.742  0.2737E-01  0.7895E-02
     -8.683  0.2038E-01  0.9093E-02
     -8.625  0.1166E-01  0.9778E-02
     -8.566  0.5006E-02  0.1007E-01
     -8.507  0.3063E-02  0.1025E-01
     -8.448  0.6033E-02  0.1061E-01
     -8.389  0.1234E-01  0.1133E-01
     -8.331  0.2004E-01  0.1251E-01
     -8.272  0.2763E-01  0.1414E-01
     -8.213  0.3393E-01  0.1613E-01
     -8.154  0.3795E-01  0.1836E-01
     -8.095  0.3921E-01  0.2067E-01
     -8.037  0.3824E-01  0.2292E-01
     -7.978  0.3662E-01  0.2507E-01
     -7.919  0.3646E-01  0.2721E-01
     -7.860  0.3964E-01  0.2954E-01
     -7.801  0.4733E-01  0.3233E-01
     -7.743  0.6058E-01  0.3589E-01
     -7.684  0.8154E-01  0.4068E-01
     -7.625  0.1134E+00  0.4735E-01
     -7.566  0.1583E+00  0.5666E-01
     -7.507  0.2151E+00  0.6931E-01
     -7.449  0.2800E+00  0.8577E-01
     -7.390  0.3485E+00  0.1063E+00
     -7.331  0.4173E+00  0.1308E+00
     -7.272  0.4846E+00  0.1593E+00
     -7.213  0.5497E+00  0.1916E+00
     -7.155  0.6119E+00  0.2276E+00
     -7.096  0.6698E+00  0.2670E+00
     -7.037  0.7197E+00  0.3093E+00
     -6.978  0.7564E+00  0.3538E+00
     -6.919  0.7749E+00  0.3993E+00
     -6.861  0.7736E+00  0.4448E+00
     -6.802  0.7559E+00  0.4893E+00
     -6.743  0.7295E+00  0.5321E+00
     -6.684  0.7026E+00  0.5735E+00
     -6.625  0.6824E+00  0.6136E+00
     -6.567  0.6724E+00  0.6531E+00
     -6.508  0.6734E+00  0.6927E+00
     -6.449  0.6847E+00  0.7330E+00
     -6.390  0.7060E+00  0.7745E+00
     -6.331  0.7362E+00  0.8178E+00
     -6.273  0.7709E+00  0.8631E+00
     -6.214  0.8025E+00  0.9103E+00
     -6.155  0.8231E+00  0.9587E+00
     -6.096  0.8294E+00  0.1007E+01
     -6.037  0.8246E+00  0.1056E+01
     -5.979  0.8170E+00  0.1104E+01
     -5.920  0.8150E+00  0.1152E+01
     -5.861  0.8231E+00  0.1200E+01
     -5.802  0.8392E+00  0.1250E+01
     -5.743  0.8568E+00  0.1300E+01
     -5.685  0.8698E+00  0.1351E+01
     -5.626  0.8772E+00  0.1403E+01
     -5.567  0.8838E+00  0.1455E+01
     -5.508  0.8943E+00  0.1507E+01
     -5.449  0.9085E+00  0.1561E+01
     -5.391  0.9204E+00  0.1615E+01
     -5.332  0.9245E+00  0.1669E+01
     -5.273  0.9207E+00  0.1723E+01
     -5.214  0.9137E+00  0.1777E+01
     -5.155  0.9088E+00  0.1830E+01
     -5.097  0.9077E+00  0.1884E+01
     -5.038  0.9094E+00  0.1937E+01
     -4.979  0.9117E+00  0.1991E+01
     -4.920  0.9128E+00  0.2045E+01
     -4.861  0.9122E+00  0.2098E+01
     -4.803  0.9110E+00  0.2152E+01
     -4.744  0.9116E+00  0.2205E+01
     -4.685  0.9158E+00  0.2259E+01
     -4.626  0.9216E+00  0.2313E+01
     -4.568  0.9226E+00  0.2368E+01
     -4.509  0.9095E+00  0.2421E+01
     -4.450  0.8740E+00  0.2473E+01
     -4.391  0.8119E+00  0.2520E+01
     -4.332  0.7239E+00  0.2563E+01
     -4.274  0.6174E+00  0.2599E+01
     -4.215  0.5054E+00  0.2629E+01
     -4.156  0.4031E+00  0.2653E+01
     -4.097  0.3216E+00  0.2671E+01
     -4.038  0.2658E+00  0.2687E+01
     -3.980  0.2345E+00  0.2701E+01
     -3.921  0.2215E+00  0.2714E+01
     -3.862  0.2187E+00  0.2727E+01
     -3.803  0.2203E+00  0.2740E+01
     -3.744  0.2242E+00  0.2753E+01
     -3.686  0.2297E+00  0.2766E+01
     -3.627  0.2345E+00  0.2780E+01
     -3.568  0.2361E+00  0.2794E+01
     -3.509  0.2334E+00  0.2808E+01
     -3.450  0.2275E+00  0.2821E+01
     -3.392  0.2209E+00  0.2834E+01
     -3.333  0.2159E+00  0.2847E+01
     -3.274  0.2143E+00  0.2859E+01
     -3.215  0.2162E+00  0.2872E+01
     -3.156  0.2192E+00  0.2885E+01
     -3.098  0.2209E+00  0.2898E+01
     -3.039  0.2216E+00  0.2911E+01
     -2.980  0.2238E+00  0.2924E+01
     -2.921  0.2290E+00  0.2938E+01
     -2.862  0.2353E+00  0.2952E+01
     -2.804  0.2405E+00  0.2966E+01
     -2.745  0.2438E+00  0.2980E+01
     -2.686  0.2464E+00  0.2995E+01
     -2.627  0.2492E+00  0.3009E+01
     -2.568  0.2537E+00  0.3024E+01
     -2.510  0.2626E+00  0.3040E+01
     -2.451  0.2782E+00  0.3056E+01
     -2.392  0.2988E+00  0.3073E+01
     -2.333  0.3191E+00  0.3092E+01
     -2.274  0.3332E+00  0.3112E+01
     -2.216  0.3390E+00  0.3132E+01
     -2.157  0.3389E+00  0.3152E+01
     -2.098  0.3366E+00  0.3171E+01
     -2.039  0.3343E+00  0.3191E+01
     -1.980  0.3318E+00  0.3211E+01
     -1.922  0.3280E+00  0.3230E+01
     -1.863  0.3224E+00  0.3249E+01
     -1.804  0.3161E+00  0.3267E+01
     -1.745  0.3093E+00  0.3286E+01
     -1.686  0.3004E+00  0.3303E+01
     -1.628  0.2864E+00  0.3320E+01
     -1.569  0.2657E+00  0.3336E+01
     -1.510  0.2412E+00  0.3350E+01
     -1.451  0.2191E+00  0.3363E+01
     -1.392  0.2045E+00  0.3375E+01
     -1.334  0.1974E+00  0.3386E+01
     -1.275  0.1933E+00  0.3398E+01
     -1.216  0.1871E+00  0.3409E+01
     -1.157  0.1774E+00  0.3419E+01
     -1.098  0.1664E+00  0.3429E+01
     -1.040  0.1566E+00  0.3438E+01
     -0.981  0.1490E+00  0.3447E+01
     -0.922  0.1433E+00  0.3455E+01
     -0.863  0.1399E+00  0.3464E+01
     -0.804  0.1396E+00  0.3472E+01
     -0.746  0.1431E+00  0.3480E+01
     -0.687  0.1490E+00  0.3489E+01
     -0.628  0.1537E+00  0.3498E+01
     -0.569  0.1531E+00  0.3507E+01
     -0.510  0.1439E+00  0.3516E+01
     -0.452  0.1265E+00  0.3523E+01
     -0.393  0.1052E+00  0.3529E+01
     -0.334  0.8639E-01  0.3534E+01
     -0.275  0.7591E-01  0.3539E+01
     -0.216  0.7528E-01  0.3543E+01
     -0.158  0.8148E-01  0.3548E+01
     -0.099  0.9009E-01  0.3553E+01
     -0.040  0.9932E-01  0.3559E+01
      0.019  0.1108E+00  0.3566E+01
      0.078  0.1259E+00  0.3573E+01
      0.136  0.1419E+00  0.3581E+01
      0.195  0.1527E+00  0.3590E+01
      0.254  0.1532E+00  0.3599E+01
      0.313  0.1432E+00  0.3608E+01
      0.372  0.1269E+00  0.3615E+01
      0.430  0.1098E+00  0.3622E+01
      0.489  0.9550E-01  0.3627E+01
      0.548  0.8529E-01  0.3632E+01
      0.607  0.7944E-01  0.3637E+01
      0.665  0.7794E-01  0.3642E+01
      0.724  0.7977E-01  0.3646E+01
      0.783  0.8285E-01  0.3651E+01
      0.842  0.8605E-01  0.3656E+01
      0.901  0.9070E-01  0.3661E+01
      0.959  0.9900E-01  0.3667E+01
      1.018  0.1105E+00  0.3674E+01
      1.077  0.1208E+00  0.3681E+01
      1.136  0.1253E+00  0.3688E+01
      1.195  0.1228E+00  0.3695E+01
      1.253  0.1165E+00  0.3702E+01
      1.312  0.1104E+00  0.3709E+01
      1.371  0.1063E+00  0.3715E+01
      1.430  0.1048E+00  0.3721E+01
      1.489  0.1067E+00  0.3727E+01
      1.547  0.1115E+00  0.3734E+01
      1.606  0.1157E+00  0.3741E+01
      1.665  0.1141E+00  0.3748E+01
      1.724  0.1040E+00  0.3754E+01
      1.783  0.8843E-01  0.3759E+01
      1.841  0.7516E-01  0.3763E+01
      1.900  0.7239E-01  0.3768E+01
      1.959  0.8244E-01  0.3772E+01
      2.018  0.9923E-01  0.3778E+01
      2.077  0.1121E+00  0.3785E+01
      2.135  0.1133E+00  0.3791E+01
      2.194  0.1028E+00  0.3798E+01
      2.253  0.8680E-01  0.3803E+01
      2.312  0.7323E-01  0.3807E+01
      2.371  0.6680E-01  0.3811E+01
      2.429  0.6792E-01  0.3815E+01
      2.488  0.7391E-01  0.3819E+01
      2.547  0.8090E-01  0.3824E+01
      2.606  0.8575E-01  0.3829E+01
      2.665  0.8743E-01  0.3834E+01
      2.723  0.8692E-01  0.3839E+01
      2.782  0.8608E-01  0.3844E+01
      2.841  0.8663E-01  0.3849E+01
      2.900  0.8982E-01  0.3855E+01
      2.959  0.9617E-01  0.3860E+01
      3.017  0.1047E+00  0.3867E+01
      3.076  0.1128E+00  0.3873E+01
      3.135  0.1175E+00  0.3880E+01
      3.194  0.1181E+00  0.3887E+01
      3.253  0.1159E+00  0.3894E+01
      3.311  0.1130E+00  0.3900E+01
      3.370  0.1090E+00  0.3907E+01
      3.429  0.1022E+00  0.3913E+01
      3.488  0.9318E-01  0.3918E+01
      3.547  0.8797E-01  0.3924E+01
      3.605  0.9530E-01  0.3929E+01
      3.664  0.1187E+00  0.3936E+01
      3.723  0.1511E+00  0.3945E+01
      3.782  0.1781E+00  0.3955E+01
      3.841  0.1889E+00  0.3967E+01
      3.899  0.1841E+00  0.3977E+01
      3.958  0.1728E+00  0.3988E+01
      4.017  0.1640E+00  0.3997E+01
      4.076  0.1620E+00  0.4007E+01
      4.135  0.1672E+00  0.4017E+01
      4.193  0.1787E+00  0.4027E+01
      4.252  0.1926E+00  0.4038E+01
      4.311  0.1995E+00  0.4050E+01
      4.370  0.1883E+00  0.4061E+01
      4.429  0.1544E+00  0.4070E+01
      4.487  0.1050E+00  0.4076E+01
      4.546  0.5567E-01  0.4080E+01
      4.605  0.1956E-01  0.4081E+01
      4.664  0.6897E-03  0.4081E+01
      4.723 -0.5184E-02  0.4081E+01
      4.781 -0.4790E-02  0.4080E+01
      4.840 -0.2887E-02  0.4080E+01
      4.899 -0.1400E-02  0.4080E+01
      4.958 -0.5891E-03  0.4080E+01
      5.017 -0.2219E-03  0.4080E+01
      5.075 -0.7475E-04  0.4080E+01
      5.134 -0.2212E-04  0.4080E+01
      5.193 -0.5639E-05  0.4080E+01
      5.252 -0.1220E-05  0.4080E+01
      5.311 -0.2219E-06  0.4080E+01
      5.369 -0.3379E-07  0.4080E+01
      5.428 -0.4299E-08  0.4080E+01
      5.487 -0.4567E-09  0.4080E+01
      5.546 -0.4053E-10  0.4080E+01
      5.604 -0.3005E-11  0.4080E+01
      5.663 -0.1864E-12  0.4080E+01
      5.722 -0.9668E-14  0.4080E+01
      5.781 -0.4178E-15  0.4080E+01
      5.840 -0.1652E-16  0.4080E+01
      5.898  0.0000E+00  0.4080E+01
      5.957  0.0000E+00  0.4080E+01
      6.016  0.0000E+00  0.4080E+01
      6.075  0.0000E+00  0.4080E+01
      6.134  0.0000E+00  0.4080E+01
      6.192  0.0000E+00  0.4080E+01
      6.251  0.0000E+00  0.4080E+01
      6.310  0.0000E+00  0.4080E+01
      6.369  0.0000E+00  0.4080E+01
      6.428  0.0000E+00  0.4080E+01
      6.486  0.0000E+00  0.4080E+01
      6.545  0.0000E+00  0.4080E+01
      6.604  0.0000E+00  0.4080E+01
      6.60405717    -11.03524990  301     -1.36638141      1.00000000
    -11.035  0.0000E+00  0.0000E+00  0.0000E+00
    -10.976  0.0000E+00  0.0000E+00  0.0000E+00
    -10.918  0.0000E+00  0.0000E+00  0.0000E+00
    -10.859  0.0000E+00  0.0000E+00  0.0000E+00
    -10.800  0.0000E+00  0.0000E+00  0.0000E+00
    -10.741  0.0000E+00  0.0000E+00  0.0000E+00
    -10.682 -0.5636E-31 -0.4390E-32 -0.1261E-32
    -10.624 -0.6264E-29 -0.4880E-30 -0.1402E-30
    -10.565 -0.5905E-27 -0.4602E-28 -0.1323E-28
    -10.506 -0.4667E-25 -0.3638E-26 -0.1046E-26
    -10.447 -0.3098E-23 -0.2415E-24 -0.6944E-25
    -10.388 -0.1727E-21 -0.1346E-22 -0.3873E-23
    -10.330 -0.8080E-20 -0.6303E-21 -0.1814E-21
    -10.271 -0.3174E-18 -0.2477E-19 -0.7134E-20
    -10.212 -0.1008E-16 -0.7871E-18 -0.2269E-18
    -10.153 -0.2806E-15 -0.2194E-16 -0.6332E-17
    -10.094 -0.6488E-14 -0.5078E-15 -0.1468E-15
    -10.036 -0.1259E-12 -0.9870E-14 -0.2858E-14
     -9.977 -0.2047E-11 -0.1609E-12 -0.4673E-13
     -9.918 -0.2792E-10 -0.2200E-11 -0.6414E-12
     -9.859 -0.3191E-09 -0.2524E-10 -0.7396E-11
     -9.800 -0.3056E-08 -0.2430E-09 -0.7165E-10
     -9.742 -0.2452E-07 -0.1963E-08 -0.5836E-09
     -9.683 -0.1648E-06 -0.1331E-07 -0.3998E-08
     -9.624 -0.9273E-06 -0.7568E-07 -0.2304E-07
     -9.565 -0.4359E-05 -0.3606E-06 -0.1116E-06
     -9.507 -0.1707E-04 -0.1435E-05 -0.4530E-06
     -9.448 -0.5526E-04 -0.4743E-05 -0.1534E-05
     -9.389 -0.1459E-03 -0.1285E-04 -0.4289E-05
     -9.330 -0.3048E-03 -0.2781E-04 -0.9694E-05
     -9.271 -0.4650E-03 -0.4506E-04 -0.1694E-04
     -9.213 -0.3696E-03 -0.4339E-04 -0.2002E-04
     -9.154  0.4552E-03  0.1956E-04 -0.5333E-05
     -9.095  0.2471E-02  0.1909E-03  0.4534E-04
     -9.036  0.5657E-02  0.4847E-03  0.1463E-03
     -8.977  0.9212E-02  0.8548E-03  0.3002E-03
     -8.919  0.1186E-01  0.1208E-02  0.4936E-03
     -8.860  0.1262E-01  0.1446E-02  0.6882E-03
     -8.801  0.1126E-01  0.1485E-02  0.8125E-03
     -8.742  0.8293E-02  0.1285E-02  0.7852E-03
     -8.683  0.4753E-02  0.8902E-03  0.5818E-03
     -8.625  0.2150E-02  0.4767E-03  0.2847E-03
     -8.566  0.2115E-02  0.2926E-03  0.5641E-04
     -8.507  0.5607E-02  0.5209E-03  0.6346E-04
     -8.448  0.1228E-01  0.1170E-02  0.4326E-03
     -8.389  0.2071E-01  0.2086E-02  0.1263E-02
     -8.331  0.2935E-01  0.3058E-02  0.2626E-02
     -8.272  0.3693E-01  0.3920E-02  0.4492E-02
     -8.213  0.4203E-01  0.4545E-02  0.6608E-02
     -8.154  0.4316E-01  0.4816E-02  0.8480E-02
     -8.095  0.4008E-01  0.4667E-02  0.9557E-02
     -8.037  0.3517E-01  0.4234E-02  0.9592E-02
     -7.978  0.3258E-01  0.3924E-02  0.9115E-02
     -7.919  0.3526E-01  0.4253E-02  0.9810E-02
     -7.860  0.4240E-01  0.5479E-02  0.1438E-01
     -7.801  0.4993E-01  0.7349E-02  0.2576E-01
     -7.743  0.5398E-01  0.9268E-02  0.4643E-01
     -7.684  0.5423E-01  0.1082E-01  0.7870E-01
     -7.625  0.5348E-01  0.1213E-01  0.1258E+00
     -7.566  0.5448E-01  0.1362E-01  0.1917E+00
     -7.507  0.5767E-01  0.1553E-01  0.2783E+00
     -7.449  0.6159E-01  0.1764E-01  0.3816E+00
     -7.390  0.6431E-01  0.1946E-01  0.4919E+00
     -7.331  0.6441E-01  0.2077E-01  0.6016E+00
     -7.272  0.6218E-01  0.2186E-01  0.7144E+00
     -7.213  0.6037E-01  0.2353E-01  0.8464E+00
     -7.155  0.6316E-01  0.2660E-01  0.1013E+01
     -7.096  0.7388E-01  0.3146E-01  0.1211E+01
     -7.037  0.9337E-01  0.3769E-01  0.1417E+01
     -6.978  0.1197E+00  0.4408E-01  0.1598E+01
     -6.919  0.1482E+00  0.4901E-01  0.1731E+01
     -6.861  0.1715E+00  0.5096E-01  0.1812E+01
     -6.802  0.1818E+00  0.4926E-01  0.1851E+01
     -6.743  0.1746E+00  0.4446E-01  0.1865E+01
     -6.684  0.1518E+00  0.3828E-01  0.1875E+01
     -6.625  0.1210E+00  0.3277E-01  0.1911E+01
     -6.567  0.9078E-01  0.2929E-01  0.1999E+01
     -6.508  0.6687E-01  0.2793E-01  0.2141E+01
     -6.449  0.5118E-01  0.2779E-01  0.2304E+01
     -6.390  0.4278E-01  0.2770E-01  0.2429E+01
     -6.331  0.3947E-01  0.2686E-01  0.2470E+01
     -6.273  0.3882E-01  0.2510E-01  0.2422E+01
     -6.214  0.3877E-01  0.2280E-01  0.2330E+01
     -6.155  0.3801E-01  0.2060E-01  0.2265E+01
     -6.096  0.3606E-01  0.1918E-01  0.2286E+01
     -6.037  0.3329E-01  0.1896E-01  0.2409E+01
     -5.979  0.3059E-01  0.1985E-01  0.2611E+01
     -5.920  0.2901E-01  0.2123E-01  0.2843E+01
     -5.861  0.2921E-01  0.2228E-01  0.3062E+01
     -5.802  0.3121E-01  0.2244E-01  0.3242E+01
     -5.743  0.3451E-01  0.2167E-01  0.3374E+01
     -5.685  0.3845E-01  0.2047E-01  0.3461E+01
     -5.626  0.4243E-01  0.1947E-01  0.3514E+01
     -5.567  0.4596E-01  0.1922E-01  0.3549E+01
     -5.508  0.4852E-01  0.1994E-01  0.3579E+01
     -5.449  0.4969E-01  0.2161E-01  0.3609E+01
     -5.391  0.4942E-01  0.2404E-01  0.3640E+01
     -5.332  0.4846E-01  0.2699E-01  0.3664E+01
     -5.273  0.4801E-01  0.3015E-01  0.3672E+01
     -5.214  0.4875E-01  0.3309E-01  0.3647E+01
     -5.155  0.5013E-01  0.3546E-01  0.3573E+01
     -5.097  0.5079E-01  0.3724E-01  0.3457E+01
     -5.038  0.4963E-01  0.3879E-01  0.3342E+01
     -4.979  0.4659E-01  0.4041E-01  0.3272E+01
     -4.920  0.4245E-01  0.4213E-01  0.3248E+01
     -4.861  0.3823E-01  0.4369E-01  0.3215E+01
     -4.803  0.3468E-01  0.4488E-01  0.3099E+01
     -4.744  0.3220E-01  0.4555E-01  0.2875E+01
     -4.685  0.3077E-01  0.4543E-01  0.2585E+01
     -4.626  0.3005E-01  0.4410E-01  0.2308E+01
     -4.568  0.2958E-01  0.4121E-01  0.2106E+01
     -4.509  0.2907E-01  0.3681E-01  0.1991E+01
     -4.450  0.2846E-01  0.3136E-01  0.1926E+01
     -4.391  0.2794E-01  0.2557E-01  0.1847E+01
     -4.332  0.2810E-01  0.2023E-01  0.1703E+01
     -4.274  0.3006E-01  0.1612E-01  0.1480E+01
     -4.215  0.3484E-01  0.1390E-01  0.1208E+01
     -4.156  0.4223E-01  0.1387E-01  0.9382E+00
     -4.097  0.5043E-01  0.1591E-01  0.7129E+00
     -4.038  0.5715E-01  0.1940E-01  0.5538E+00
     -3.980  0.6133E-01  0.2325E-01  0.4621E+00
     -3.921  0.6378E-01  0.2629E-01  0.4268E+00
     -3.862  0.6574E-01  0.2804E-01  0.4315E+00
     -3.803  0.6690E-01  0.2914E-01  0.4597E+00
     -3.744  0.6528E-01  0.3071E-01  0.4953E+00
     -3.686  0.5959E-01  0.3327E-01  0.5221E+00
     -3.627  0.5146E-01  0.3627E-01  0.5271E+00
     -3.568  0.4447E-01  0.3868E-01  0.5060E+00
     -3.509  0.4093E-01  0.3980E-01  0.4650E+00
     -3.450  0.4049E-01  0.3965E-01  0.4186E+00
     -3.392  0.4220E-01  0.3905E-01  0.3858E+00
     -3.333  0.4659E-01  0.3932E-01  0.3842E+00
     -3.274  0.5443E-01  0.4142E-01  0.4174E+00
     -3.215  0.6377E-01  0.4504E-01  0.4653E+00
     -3.156  0.6992E-01  0.4876E-01  0.4924E+00
     -3.098  0.6969E-01  0.5161E-01  0.4751E+00
     -3.039  0.6519E-01  0.5430E-01  0.4223E+00
     -2.980  0.6212E-01  0.5848E-01  0.3652E+00
     -2.921  0.6422E-01  0.6459E-01  0.3284E+00
     -2.862  0.7001E-01  0.7074E-01  0.3137E+00
     -2.804  0.7479E-01  0.7396E-01  0.3082E+00
     -2.745  0.7474E-01  0.7248E-01  0.3009E+00
     -2.686  0.6912E-01  0.6684E-01  0.2900E+00
     -2.627  0.5990E-01  0.5923E-01  0.2800E+00
     -2.568  0.5046E-01  0.5221E-01  0.2773E+00
     -2.510  0.4403E-01  0.4776E-01  0.2861E+00
     -2.451  0.4204E-01  0.4662E-01  0.3049E+00
     -2.392  0.4316E-01  0.4821E-01  0.3272E+00
     -2.333  0.4425E-01  0.5099E-01  0.3457E+00
     -2.274  0.4263E-01  0.5333E-01  0.3576E+00
     -2.216  0.3783E-01  0.5438E-01  0.3649E+00
     -2.157  0.3159E-01  0.5420E-01  0.3716E+00
     -2.098  0.2654E-01  0.5326E-01  0.3792E+00
     -2.039  0.2452E-01  0.5171E-01  0.3854E+00
     -1.980  0.2550E-01  0.4919E-01  0.3841E+00
     -1.922  0.2767E-01  0.4534E-01  0.3687E+00
     -1.863  0.2866E-01  0.4046E-01  0.3375E+00
     -1.804  0.2708E-01  0.3561E-01  0.2960E+00
     -1.745  0.2326E-01  0.3192E-01  0.2540E+00
     -1.686  0.1870E-01  0.2982E-01  0.2181E+00
     -1.628  0.1494E-01  0.2911E-01  0.1890E+00
     -1.569  0.1284E-01  0.2943E-01  0.1639E+00
     -1.510  0.1252E-01  0.3062E-01  0.1411E+00
     -1.451  0.1362E-01  0.3255E-01  0.1227E+00
     -1.392  0.1561E-01  0.3491E-01  0.1111E+00
     -1.334  0.1785E-01  0.3721E-01  0.1059E+00
     -1.275  0.1974E-01  0.3917E-01  0.1032E+00
     -1.216  0.2084E-01  0.4080E-01  0.9911E-01
     -1.157  0.2108E-01  0.4217E-01  0.9359E-01
     -1.098  0.2068E-01  0.4321E-01  0.9021E-01
     -1.040  0.2009E-01  0.4377E-01  0.9190E-01
     -0.981  0.1994E-01  0.4386E-01  0.9765E-01
     -0.922  0.2084E-01  0.4389E-01  0.1034E+00
     -0.863  0.2314E-01  0.4475E-01  0.1056E+00
     -0.804  0.2672E-01  0.4728E-01  0.1040E+00
     -0.746  0.3080E-01  0.5147E-01  0.1007E+00
     -0.687  0.3405E-01  0.5615E-01  0.9714E-01
     -0.628  0.3505E-01  0.5934E-01  0.9327E-01
     -0.569  0.3293E-01  0.5914E-01  0.8751E-01
     -0.510  0.2800E-01  0.5466E-01  0.7872E-01
     -0.452  0.2168E-01  0.4658E-01  0.6780E-01
     -0.393  0.1572E-01  0.3708E-01  0.5757E-01
     -0.334  0.1127E-01  0.2908E-01  0.5103E-01
     -0.275  0.8579E-02  0.2494E-01  0.4954E-01
     -0.216  0.7625E-02  0.2542E-01  0.5236E-01
     -0.158  0.8811E-02  0.2928E-01  0.5764E-01
     -0.099  0.1315E-01  0.3454E-01  0.6383E-01
     -0.040  0.2144E-01  0.4058E-01  0.7063E-01
      0.019  0.3303E-01  0.4905E-01  0.7867E-01
      0.078  0.4524E-01  0.6186E-01  0.8797E-01
      0.136  0.5445E-01  0.7791E-01  0.9647E-01
      0.195  0.5806E-01  0.9223E-01  0.1005E+00
      0.254  0.5559E-01  0.9889E-01  0.9708E-01
      0.313  0.4854E-01  0.9519E-01  0.8644E-01
      0.372  0.3937E-01  0.8328E-01  0.7175E-01
      0.430  0.3043E-01  0.6806E-01  0.5720E-01
      0.489  0.2314E-01  0.5391E-01  0.4581E-01
      0.548  0.1789E-01  0.4344E-01  0.3860E-01
      0.607  0.1471E-01  0.3801E-01  0.3539E-01
      0.665  0.1348E-01  0.3808E-01  0.3540E-01
      0.724  0.1379E-01  0.4249E-01  0.3739E-01
      0.783  0.1494E-01  0.4854E-01  0.3995E-01
      0.842  0.1646E-01  0.5384E-01  0.4268E-01
      0.901  0.1840E-01  0.5797E-01  0.4647E-01
      0.959  0.2086E-01  0.6199E-01  0.5218E-01
      1.018  0.2327E-01  0.6633E-01  0.5902E-01
      1.077  0.2475E-01  0.6978E-01  0.6477E-01
      1.136  0.2518E-01  0.7080E-01  0.6773E-01
      1.195  0.2575E-01  0.6948E-01  0.6808E-01
      1.253  0.2789E-01  0.6765E-01  0.6710E-01
      1.312  0.3167E-01  0.6713E-01  0.6555E-01
      1.371  0.3549E-01  0.6815E-01  0.6387E-01
      1.430  0.3736E-01  0.6996E-01  0.6334E-01
      1.489  0.3633E-01  0.7211E-01  0.6566E-01
      1.547  0.3277E-01  0.7452E-01  0.7044E-01
      1.606  0.2780E-01  0.7651E-01  0.7415E-01
      1.665  0.2275E-01  0.7642E-01  0.7252E-01
      1.724  0.1881E-01  0.7222E-01  0.6404E-01
      1.783  0.1690E-01  0.6324E-01  0.5143E-01
      1.841  0.1782E-01  0.5189E-01  0.4026E-01
      1.900  0.2189E-01  0.4349E-01  0.3591E-01
      1.959  0.2788E-01  0.4281E-01  0.3999E-01
      2.018  0.3278E-01  0.4986E-01  0.4893E-01
      2.077  0.3343E-01  0.5920E-01  0.5622E-01
      2.135  0.2887E-01  0.6391E-01  0.5721E-01
      2.194  0.2110E-01  0.6065E-01  0.5217E-01
      2.253  0.1339E-01  0.5177E-01  0.4494E-01
      2.312  0.8118E-02  0.4323E-01  0.3910E-01
      2.371  0.5744E-02  0.4032E-01  0.3556E-01
      2.429  0.5371E-02  0.4443E-01  0.3342E-01
      2.488  0.5839E-02  0.5244E-01  0.3206E-01
      2.547  0.6420E-02  0.5896E-01  0.3189E-01
      2.606  0.6945E-02  0.5984E-01  0.3347E-01
      2.665  0.7642E-02  0.5480E-01  0.3637E-01
      2.723  0.8879E-02  0.4719E-01  0.3916E-01
      2.782  0.1082E-01  0.4120E-01  0.4037E-01
      2.841  0.1320E-01  0.3902E-01  0.3969E-01
      2.900  0.1545E-01  0.4028E-01  0.3813E-01
      2.959  0.1718E-01  0.4359E-01  0.3712E-01
      3.017  0.1832E-01  0.4798E-01  0.3736E-01
      3.076  0.1889E-01  0.5263E-01  0.3836E-01
      3.135  0.1877E-01  0.5610E-01  0.3890E-01
      3.194  0.1791E-01  0.5657E-01  0.3820E-01
      3.253  0.1660E-01  0.5322E-01  0.3639E-01
      3.311  0.1532E-01  0.4697E-01  0.3399E-01
      3.370  0.1434E-01  0.3963E-01  0.3100E-01
      3.429  0.1346E-01  0.3260E-01  0.2705E-01
      3.488  0.1249E-01  0.2665E-01  0.2250E-01
      3.547  0.1206E-01  0.2275E-01  0.1920E-01
      3.605  0.1370E-01  0.2214E-01  0.1952E-01
      3.664  0.1888E-01  0.2538E-01  0.2443E-01
      3.723  0.2748E-01  0.3127E-01  0.3221E-01
      3.782  0.3725E-01  0.3722E-01  0.3944E-01
      3.841  0.4513E-01  0.4075E-01  0.4336E-01
      3.899  0.4923E-01  0.4100E-01  0.4361E-01
      3.958  0.4963E-01  0.3910E-01  0.4184E-01
      4.017  0.4774E-01  0.3705E-01  0.3987E-01
      4.076  0.4582E-01  0.3629E-01  0.3861E-01
      4.135  0.4742E-01  0.3725E-01  0.3852E-01
      4.193  0.5660E-01  0.3964E-01  0.4017E-01
      4.252  0.7405E-01  0.4257E-01  0.4351E-01
      4.311  0.9346E-01  0.4430E-01  0.4664E-01
      4.370  0.1036E+00  0.4247E-01  0.4618E-01
      4.429  0.9605E-01  0.3567E-01  0.3975E-01
      4.487  0.7215E-01  0.2495E-01  0.2828E-01
      4.546  0.4190E-01  0.1355E-01  0.1558E-01
      4.605  0.1654E-01  0.4752E-02  0.5648E-02
      4.664  0.1717E-02 -0.3759E-04  0.1814E-03
      4.723 -0.3632E-02 -0.1541E-02 -0.1591E-02
      4.781 -0.3727E-02 -0.1363E-02 -0.1464E-02
      4.840 -0.2263E-02 -0.7769E-03 -0.8542E-03
      4.899 -0.1026E-02 -0.3374E-03 -0.3831E-03
      4.958 -0.3699E-03 -0.1180E-03 -0.1412E-03
      5.017 -0.1091E-03 -0.3426E-04 -0.4446E-04
      5.075 -0.2673E-04 -0.8423E-05 -0.1227E-04
      5.134 -0.5497E-05 -0.1786E-05 -0.3013E-05
      5.193 -0.9581E-06 -0.3316E-06 -0.6589E-06
      5.252 -0.1428E-06 -0.5453E-07 -0.1273E-06
      5.311 -0.1838E-07 -0.7970E-08 -0.2141E-07
      5.369 -0.2060E-08 -0.1031E-08 -0.3095E-08
      5.428 -0.2024E-09 -0.1169E-09 -0.3809E-09
      5.487 -0.1747E-10 -0.1148E-10 -0.3962E-10
      5.546 -0.1322E-11 -0.9671E-12 -0.3468E-11
      5.604 -0.8718E-13 -0.6934E-13 -0.2550E-12
      5.663 -0.4951E-14 -0.4204E-14 -0.1572E-13
      5.722 -0.2456E-15 -0.2148E-15 -0.8123E-15
      5.781 -0.9318E-17 -0.9055E-17 -0.3490E-16
      5.840 -0.3685E-18 -0.3581E-18 -0.1380E-17
      5.898  0.0000E+00  0.0000E+00  0.0000E+00
      5.957  0.0000E+00  0.0000E+00  0.0000E+00
      6.016  0.0000E+00  0.0000E+00  0.0000E+00
      6.075  0.0000E+00  0.0000E+00  0.0000E+00
      6.134  0.0000E+00  0.0000E+00  0.0000E+00
      6.192  0.0000E+00  0.0000E+00  0.0000E+00
      6.251  0.0000E+00  0.0000E+00  0.0000E+00
      6.310  0.0000E+00  0.0000E+00  0.0000E+00
      6.369  0.0000E+00  0.0000E+00  0.0000E+00
      6.428  0.0000E+00  0.0000E+00  0.0000E+00
      6.486  0.0000E+00  0.0000E+00  0.0000E+00
      6.545  0.0000E+00  0.0000E+00  0.0000E+00
      6.604  0.0000E+00  0.0000E+00  0.0000E+00
      6.60405717    -11.03524990  301     -1.36638141      1.00000000
    -11.035  0.0000E+00  0.0000E+00  0.0000E+00
    -10.976  0.0000E+00  0.0000E+00  0.0000E+00
    -10.918  0.0000E+00  0.0000E+00  0.0000E+00
    -10.859  0.0000E+00  0.0000E+00  0.0000E+00
    -10.800  0.0000E+00  0.0000E+00  0.0000E+00
    -10.741  0.0000E+00  0.0000E+00  0.0000E+00
    -10.682 -0.5656E-31 -0.5119E-32 -0.7093E-33
    -10.624 -0.6286E-29 -0.5690E-30 -0.7884E-31
    -10.565 -0.5926E-27 -0.5366E-28 -0.7454E-29
    -10.506 -0.4684E-25 -0.4242E-26 -0.5897E-27
    -10.447 -0.3109E-23 -0.2816E-24 -0.3920E-25
    -10.388 -0.1733E-21 -0.1570E-22 -0.2189E-23
    -10.330 -0.8109E-20 -0.7349E-21 -0.1027E-21
    -10.271 -0.3185E-18 -0.2888E-19 -0.4047E-20
    -10.212 -0.1011E-16 -0.9178E-18 -0.1292E-18
    -10.153 -0.2817E-15 -0.2558E-16 -0.3619E-17
    -10.094 -0.6513E-14 -0.5921E-15 -0.8427E-16
    -10.036 -0.1264E-12 -0.1151E-13 -0.1653E-14
     -9.977 -0.2056E-11 -0.1876E-12 -0.2726E-13
     -9.918 -0.2805E-10 -0.2565E-11 -0.3786E-12
     -9.859 -0.3207E-09 -0.2943E-10 -0.4432E-11
     -9.800 -0.3073E-08 -0.2833E-09 -0.4377E-10
     -9.742 -0.2468E-07 -0.2288E-08 -0.3651E-09
     -9.683 -0.1660E-06 -0.1551E-07 -0.2575E-08
     -9.624 -0.9349E-06 -0.8820E-07 -0.1536E-07
     -9.565 -0.4401E-05 -0.4202E-06 -0.7749E-07
     -9.507 -0.1726E-04 -0.1672E-05 -0.3295E-06
     -9.448 -0.5603E-04 -0.5527E-05 -0.1176E-05
     -9.389 -0.1484E-03 -0.1498E-04 -0.3494E-05
     -9.330 -0.3116E-03 -0.3244E-04 -0.8518E-05
     -9.271 -0.4803E-03 -0.5271E-04 -0.1660E-04
     -9.213 -0.3971E-03 -0.5133E-04 -0.2427E-04
     -9.154  0.4175E-03  0.2077E-04 -0.2087E-04
     -9.095  0.2442E-02  0.2186E-03  0.1268E-04
     -9.036  0.5692E-02  0.5605E-03  0.1018E-03
     -8.977  0.9424E-02  0.9970E-03  0.2724E-03
     -8.919  0.1242E-01  0.1425E-02  0.5339E-03
     -8.860  0.1368E-01  0.1728E-02  0.8438E-03
     -8.801  0.1285E-01  0.1803E-02  0.1085E-02
     -8.742  0.1017E-01  0.1587E-02  0.1113E-02
     -8.683  0.6504E-02  0.1125E-02  0.8753E-03
     -8.625  0.3316E-02  0.6184E-03  0.4818E-03
     -8.566  0.2295E-02  0.3538E-03  0.1504E-03
     -8.507  0.4500E-02  0.5391E-03  0.7726E-04
     -8.448  0.9679E-02  0.1180E-02  0.3869E-03
     -8.389  0.1636E-01  0.2096E-02  0.1192E-02
     -8.331  0.2263E-01  0.3033E-02  0.2614E-02
     -8.272  0.2691E-01  0.3786E-02  0.4627E-02
     -8.213  0.2850E-01  0.4227E-02  0.6819E-02
     -8.154  0.2768E-01  0.4286E-02  0.8425E-02
     -8.095  0.2579E-01  0.3967E-02  0.8721E-02
     -8.037  0.2501E-01  0.3436E-02  0.7479E-02
     -7.978  0.2766E-01  0.3072E-02  0.5183E-02
     -7.919  0.3526E-01  0.3370E-02  0.3264E-02
     -7.860  0.4732E-01  0.4650E-02  0.4784E-02
     -7.801  0.6088E-01  0.6789E-02  0.1536E-01
     -7.743  0.7198E-01  0.9289E-02  0.4306E-01
     -7.684  0.7841E-01  0.1167E-01  0.9589E-01
     -7.625  0.8118E-01  0.1380E-01  0.1771E+00
     -7.566  0.8277E-01  0.1584E-01  0.2824E+00
     -7.507  0.8452E-01  0.1796E-01  0.4044E+00
     -7.449  0.8618E-01  0.2022E-01  0.5424E+00
     -7.390  0.8767E-01  0.2265E-01  0.7082E+00
     -7.331  0.9068E-01  0.2527E-01  0.9161E+00
     -7.272  0.9803E-01  0.2814E-01  0.1163E+01
     -7.213  0.1113E+00  0.3131E-01  0.1423E+01
     -7.155  0.1288E+00  0.3494E-01  0.1663E+01
     -7.096  0.1460E+00  0.3925E-01  0.1872E+01
     -7.037  0.1574E+00  0.4443E-01  0.2060E+01
     -6.978  0.1592E+00  0.5019E-01  0.2232E+01
     -6.919  0.1509E+00  0.5527E-01  0.2362E+01
     -6.861  0.1353E+00  0.5763E-01  0.2404E+01
     -6.802  0.1164E+00  0.5575E-01  0.2328E+01
     -6.743  0.9708E-01  0.4989E-01  0.2155E+01
     -6.684  0.7851E-01  0.4204E-01  0.1946E+01
     -6.625  0.6143E-01  0.3455E-01  0.1772E+01
     -6.567  0.4736E-01  0.2887E-01  0.1669E+01
     -6.508  0.3780E-01  0.2530E-01  0.1639E+01
     -6.449  0.3270E-01  0.2353E-01  0.1660E+01
     -6.390  0.3035E-01  0.2307E-01  0.1713E+01
     -6.331  0.2878E-01  0.2340E-01  0.1785E+01
     -6.273  0.2717E-01  0.2393E-01  0.1869E+01
     -6.214  0.2603E-01  0.2416E-01  0.1965E+01
     -6.155  0.2623E-01  0.2389E-01  0.2077E+01
     -6.096  0.2805E-01  0.2331E-01  0.2207E+01
     -6.037  0.3089E-01  0.2288E-01  0.2342E+01
     -5.979  0.3383E-01  0.2302E-01  0.2464E+01
     -5.920  0.3625E-01  0.2380E-01  0.2563E+01
     -5.861  0.3797E-01  0.2494E-01  0.2649E+01
     -5.802  0.3887E-01  0.2593E-01  0.2749E+01