  64  64   1   0
  0.4666120E+02  0.1129678E-08  0.1132694E-08  0.2692010E-08  0.1000000E-15
  1.000000000000000E-004
  CAR 
 unknown system                          
      7.09426712    -10.88385393  301     -1.37597535      1.00000000
    -10.884  0.0000E+00  0.0000E+00
    -10.824  0.0000E+00  0.0000E+00
    -10.764  0.0000E+00  0.0000E+00
    -10.704  0.0000E+00  0.0000E+00
    -10.644  0.0000E+00  0.0000E+00
    -10.584  0.0000E+00  0.0000E+00
    -10.524 -0.1462E-30 -0.8763E-32
    -10.464 -0.1742E-28 -0.1052E-29
    -10.404 -0.1744E-26 -0.1056E-27
    -10.345 -0.1456E-24 -0.8833E-26
    -10.285 -0.1014E-22 -0.6165E-24
    -10.225 -0.5888E-21 -0.3590E-22
    -10.165 -0.2851E-19 -0.1744E-20
    -10.105 -0.1150E-17 -0.7069E-19
    -10.045 -0.3754E-16 -0.2320E-17
     -9.985 -0.1050E-14 -0.6524E-16
     -9.925 -0.2441E-13 -0.1528E-14
     -9.865 -0.4727E-12 -0.2986E-13
     -9.805 -0.7619E-11 -0.4864E-12
     -9.745 -0.1022E-09 -0.6610E-11
     -9.685 -0.1140E-08 -0.7493E-10
     -9.625 -0.1058E-07 -0.7091E-09
     -9.565 -0.8170E-07 -0.5605E-08
     -9.506 -0.5247E-06 -0.3705E-07
     -9.446 -0.2801E-05 -0.2049E-06
     -9.386 -0.1241E-04 -0.9486E-06
     -9.326 -0.4549E-04 -0.3675E-05
     -9.266 -0.1367E-03 -0.1187E-04
     -9.206 -0.3307E-03 -0.3169E-04
     -9.146 -0.6146E-03 -0.6852E-04
     -9.086 -0.7619E-03 -0.1142E-03
     -9.026 -0.1783E-03 -0.1249E-03
     -8.966  0.1961E-02 -0.7317E-05
     -8.906  0.6072E-02  0.3566E-03
     -8.846  0.1146E-01  0.1043E-02
     -8.786  0.1658E-01  0.2036E-02
     -8.726  0.2039E-01  0.3258E-02
     -8.667  0.2307E-01  0.4641E-02
     -8.607  0.2483E-01  0.6129E-02
     -8.547  0.2475E-01  0.7612E-02
     -8.487  0.2185E-01  0.8921E-02
     -8.427  0.1713E-01  0.9948E-02
     -8.367  0.1338E-01  0.1075E-01
     -8.307  0.1285E-01  0.1152E-01
     -8.247  0.1593E-01  0.1247E-01
     -8.187  0.2177E-01  0.1378E-01
     -8.127  0.2905E-01  0.1552E-01
     -8.067  0.3567E-01  0.1766E-01
     -8.007  0.3886E-01  0.1999E-01
     -7.947  0.3742E-01  0.2223E-01
     -7.888  0.3456E-01  0.2430E-01
     -7.828  0.3791E-01  0.2657E-01
     -7.768  0.5551E-01  0.2990E-01
     -7.708  0.9115E-01  0.3536E-01
     -7.648  0.1436E+00  0.4396E-01
     -7.588  0.2101E+00  0.5655E-01
     -7.528  0.2897E+00  0.7391E-01
     -7.468  0.3818E+00  0.9679E-01
     -7.408  0.4807E+00  0.1256E+00
     -7.348  0.5750E+00  0.1601E+00
     -7.288  0.6534E+00  0.1992E+00
     -7.228  0.7125E+00  0.2419E+00
     -7.168  0.7566E+00  0.2873E+00
     -7.108  0.7889E+00  0.3345E+00
     -7.049  0.8065E+00  0.3829E+00
     -6.989  0.8049E+00  0.4311E+00
     -6.929  0.7869E+00  0.4782E+00
     -6.869  0.7644E+00  0.5241E+00
     -6.809  0.7503E+00  0.5690E+00
     -6.749  0.7477E+00  0.6138E+00
     -6.689  0.7484E+00  0.6587E+00
     -6.629  0.7410E+00  0.7031E+00
     -6.569  0.7237E+00  0.7464E+00
     -6.509  0.7093E+00  0.7890E+00
     -6.449  0.7159E+00  0.8319E+00
     -6.389  0.7500E+00  0.8768E+00
     -6.329  0.7991E+00  0.9247E+00
     -6.269  0.8411E+00  0.9751E+00
     -6.210  0.8617E+00  0.1027E+01
     -6.150  0.8654E+00  0.1079E+01
     -6.090  0.8695E+00  0.1131E+01
     -6.030  0.8887E+00  0.1184E+01
     -5.970  0.9232E+00  0.1239E+01
     -5.910  0.9617E+00  0.1297E+01
     -5.850  0.9903E+00  0.1356E+01
     -5.790  0.9992E+00  0.1416E+01
     -5.730  0.9865E+00  0.1475E+01
     -5.670  0.9593E+00  0.1533E+01
     -5.610  0.9315E+00  0.1589E+01
     -5.550  0.9175E+00  0.1644E+01
     -5.490  0.9245E+00  0.1699E+01
     -5.430  0.9479E+00  0.1756E+01
     -5.371  0.9759E+00  0.1814E+01
     -5.311  0.9971E+00  0.1874E+01
     -5.251  0.1008E+01  0.1934E+01
     -5.191  0.1011E+01  0.1995E+01
     -5.131  0.1009E+01  0.2055E+01
     -5.071  0.1001E+01  0.2115E+01
     -5.011  0.9875E+00  0.2175E+01
     -4.951  0.9728E+00  0.2233E+01
     -4.891  0.9641E+00  0.2291E+01
     -4.831  0.9651E+00  0.2349E+01
     -4.771  0.9744E+00  0.2407E+01
     -4.711  0.9893E+00  0.2466E+01
     -4.651  0.1008E+01  0.2527E+01
     -4.592  0.1025E+01  0.2588E+01
     -4.532  0.1028E+01  0.2650E+01
     -4.472  0.9981E+00  0.2710E+01
     -4.412  0.9199E+00  0.2765E+01
     -4.352  0.7952E+00  0.2812E+01
     -4.292  0.6443E+00  0.2851E+01
     -4.232  0.4951E+00  0.2881E+01
     -4.172  0.3685E+00  0.2903E+01
     -4.112  0.2723E+00  0.2919E+01
     -4.052  0.2060E+00  0.2931E+01
     -3.992  0.1661E+00  0.2941E+01
     -3.932  0.1470E+00  0.2950E+01
     -3.872  0.1409E+00  0.2959E+01
     -3.812  0.1392E+00  0.2967E+01
     -3.753  0.1361E+00  0.2975E+01
     -3.693  0.1307E+00  0.2983E+01
     -3.633  0.1261E+00  0.2990E+01
     -3.573  0.1265E+00  0.2998E+01
     -3.513  0.1354E+00  0.3006E+01
     -3.453  0.1524E+00  0.3015E+01
     -3.393  0.1731E+00  0.3026E+01
     -3.333  0.1885E+00  0.3037E+01
     -3.273  0.1907E+00  0.3048E+01
     -3.213  0.1792E+00  0.3059E+01
     -3.153  0.1621E+00  0.3069E+01
     -3.093  0.1501E+00  0.3078E+01
     -3.033  0.1484E+00  0.3087E+01
     -2.973  0.1547E+00  0.3096E+01
     -2.914  0.1632E+00  0.3106E+01
     -2.854  0.1694E+00  0.3116E+01
     -2.794  0.1734E+00  0.3126E+01
     -2.734  0.1778E+00  0.3137E+01
     -2.674  0.1851E+00  0.3148E+01
     -2.614  0.1958E+00  0.3160E+01
     -2.554  0.2094E+00  0.3172E+01
     -2.494  0.2257E+00  0.3186E+01
     -2.434  0.2440E+00  0.3200E+01
     -2.374  0.2618E+00  0.3216E+01
     -2.314  0.2753E+00  0.3233E+01
     -2.254  0.2829E+00  0.3250E+01
     -2.194  0.2869E+00  0.3267E+01
     -2.135  0.2911E+00  0.3284E+01
     -2.075  0.2959E+00  0.3302E+01
     -2.015  0.2966E+00  0.3320E+01
     -1.955  0.2876E+00  0.3337E+01
     -1.895  0.2672E+00  0.3353E+01
     -1.835  0.2389E+00  0.3367E+01
     -1.775  0.2091E+00  0.3380E+01
     -1.715  0.1830E+00  0.3391E+01
     -1.655  0.1628E+00  0.3401E+01
     -1.595  0.1489E+00  0.3410E+01
     -1.535  0.1411E+00  0.3418E+01
     -1.475  0.1385E+00  0.3426E+01
     -1.415  0.1384E+00  0.3435E+01
     -1.355  0.1375E+00  0.3443E+01
     -1.296  0.1340E+00  0.3451E+01
     -1.236  0.1295E+00  0.3459E+01
     -1.176  0.1282E+00  0.3466E+01
     -1.116  0.1331E+00  0.3474E+01
     -1.056  0.1430E+00  0.3483E+01
     -0.996  0.1529E+00  0.3492E+01
     -0.936  0.1569E+00  0.3501E+01
     -0.876  0.1519E+00  0.3510E+01
     -0.816  0.1380E+00  0.3519E+01
     -0.756  0.1180E+00  0.3526E+01
     -0.696  0.9641E-01  0.3532E+01
     -0.636  0.7870E-01  0.3536E+01
     -0.576  0.6879E-01  0.3540E+01
     -0.516  0.6766E-01  0.3545E+01
     -0.457  0.7398E-01  0.3549E+01
     -0.397  0.8607E-01  0.3554E+01
     -0.337  0.1027E+00  0.3560E+01
     -0.277  0.1220E+00  0.3568E+01
     -0.217  0.1405E+00  0.3576E+01
     -0.157  0.1538E+00  0.3585E+01
     -0.097  0.1584E+00  0.3595E+01
     -0.037  0.1540E+00  0.3604E+01
      0.023  0.1431E+00  0.3612E+01
      0.083  0.1282E+00  0.3620E+01
      0.143  0.1110E+00  0.3627E+01
      0.203  0.9246E-01  0.3632E+01
      0.263  0.7556E-01  0.3637E+01
      0.323  0.6535E-01  0.3641E+01
      0.382  0.6534E-01  0.3645E+01
      0.442  0.7381E-01  0.3649E+01
      0.502  0.8501E-01  0.3654E+01
      0.562  0.9463E-01  0.3660E+01
      0.622  0.1026E+00  0.3666E+01
      0.682  0.1102E+00  0.3673E+01
      0.742  0.1158E+00  0.3680E+01
      0.802  0.1164E+00  0.3687E+01
      0.862  0.1124E+00  0.3693E+01
      0.922  0.1088E+00  0.3700E+01
      0.982  0.1103E+00  0.3706E+01
      1.042  0.1159E+00  0.3713E+01
      1.102  0.1208E+00  0.3721E+01
      1.161  0.1214E+00  0.3728E+01
      1.221  0.1185E+00  0.3735E+01
      1.281  0.1145E+00  0.3742E+01
      1.341  0.1096E+00  0.3748E+01
      1.401  0.1014E+00  0.3755E+01
      1.461  0.8810E-01  0.3760E+01
      1.521  0.7265E-01  0.3764E+01
      1.581  0.6295E-01  0.3768E+01
      1.641  0.6699E-01  0.3772E+01
      1.701  0.8519E-01  0.3777E+01
      1.761  0.1077E+00  0.3784E+01
      1.821  0.1214E+00  0.3791E+01
      1.881  0.1194E+00  0.3798E+01
      1.941  0.1047E+00  0.3804E+01
      2.000  0.8556E-01  0.3809E+01
      2.060  0.6933E-01  0.3814E+01
      2.120  0.6012E-01  0.3817E+01
      2.180  0.5910E-01  0.3821E+01
      2.240  0.6498E-01  0.3825E+01
      2.300  0.7447E-01  0.3829E+01
      2.360  0.8357E-01  0.3834E+01
      2.420  0.8948E-01  0.3839E+01
      2.480  0.9142E-01  0.3845E+01
      2.540  0.9000E-01  0.3850E+01
      2.600  0.8679E-01  0.3855E+01
      2.660  0.8473E-01  0.3861E+01
      2.720  0.8740E-01  0.3866E+01
      2.780  0.9541E-01  0.3871E+01
      2.839  0.1039E+00  0.3878E+01
      2.899  0.1066E+00  0.3884E+01
      2.959  0.1024E+00  0.3890E+01
      3.019  0.9732E-01  0.3896E+01
      3.079  0.9742E-01  0.3902E+01
      3.139  0.1018E+00  0.3908E+01
      3.199  0.1047E+00  0.3914E+01
      3.259  0.1043E+00  0.3921E+01
      3.319  0.1061E+00  0.3927E+01
      3.379  0.1178E+00  0.3934E+01
      3.439  0.1405E+00  0.3942E+01
      3.499  0.1665E+00  0.3952E+01
      3.559  0.1852E+00  0.3963E+01
      3.618  0.1911E+00  0.3975E+01
      3.678  0.1864E+00  0.3986E+01
      3.738  0.1773E+00  0.3997E+01
      3.798  0.1695E+00  0.4007E+01
      3.858  0.1671E+00  0.4017E+01
      3.918  0.1726E+00  0.4027E+01
      3.978  0.1867E+00  0.4038E+01
      4.038  0.2068E+00  0.4051E+01
      4.098  0.2271E+00  0.4064E+01
      4.158  0.2406E+00  0.4079E+01
      4.218  0.2438E+00  0.4093E+01
      4.278  0.2401E+00  0.4108E+01
      4.338  0.2366E+00  0.4122E+01
      4.398  0.2359E+00  0.4136E+01
      4.457  0.2327E+00  0.4150E+01
      4.517  0.2191E+00  0.4163E+01
      4.577  0.1919E+00  0.4175E+01
      4.637  0.1544E+00  0.4184E+01
      4.697  0.1125E+00  0.4191E+01
      4.757  0.7205E-01  0.4195E+01
      4.817  0.3794E-01  0.4197E+01
      4.877  0.1454E-01  0.4198E+01
      4.937  0.3545E-02  0.4198E+01
      4.997  0.2391E-02  0.4199E+01
      5.057  0.5520E-02  0.4199E+01
      5.117  0.7753E-02  0.4199E+01
      5.177  0.6983E-02  0.4200E+01
      5.237  0.4196E-02  0.4200E+01
      5.296  0.1435E-02  0.4200E+01
      5.356 -0.1221E-03  0.4200E+01
      5.416 -0.5383E-03  0.4200E+01
      5.476 -0.4123E-03  0.4200E+01
      5.536 -0.2042E-03  0.4200E+01
      5.596 -0.7562E-04  0.4200E+01
      5.656 -0.2198E-04  0.4200E+01
      5.716 -0.5129E-05  0.4200E+01
      5.776 -0.9733E-06  0.4200E+01
      5.836 -0.1514E-06  0.4200E+01
      5.896 -0.1938E-07  0.4200E+01
      5.956 -0.2051E-08  0.4200E+01
      6.016 -0.1798E-09  0.4200E+01
      6.076 -0.1308E-10  0.4200E+01
      6.135 -0.7912E-12  0.4200E+01
      6.195 -0.3981E-13  0.4200E+01
      6.255 -0.1663E-14  0.4200E+01
      6.315 -0.6021E-16  0.4200E+01
      6.375 -0.2316E-17  0.4200E+01
      6.435  0.0000E+00  0.4200E+01
      6.495  0.0000E+00  0.4200E+01
      6.555  0.0000E+00  0.4200E+01
      6.615  0.0000E+00  0.4200E+01
      6.675  0.0000E+00  0.4200E+01
      6.735  0.0000E+00  0.4200E+01
      6.795  0.0000E+00  0.4200E+01
      6.855  0.0000E+00  0.4200E+01
      6.914  0.0000E+00  0.4200E+01
      6.974  0.0000E+00  0.4200E+01
      7.034  0.0000E+00  0.4200E+01
      7.094  0.0000E+00  0.4200E+01
      7.09426712    -10.88385393  301     -1.37597535      1.00000000
    -10.884  0.0000E+00  0.0000E+00  0.0000E+00
    -10.824  0.0000E+00  0.0000E+00  0.0000E+00
    -10.764  0.0000E+00  0.0000E+00  0.0000E+00
    -10.704  0.0000E+00  0.0000E+00  0.0000E+00
    -10.644  0.0000E+00  0.0000E+00  0.0000E+00
    -10.584  0.0000E+00  0.0000E+00  0.0000E+00
    -10.524 -0.1198E-30 -0.9408E-32 -0.2352E-32
    -10.464 -0.1426E-28 -0.1120E-29 -0.2801E-30
    -10.404 -0.1429E-26 -0.1123E-27 -0.2807E-28
    -10.345 -0.1193E-24 -0.9372E-26 -0.2344E-26
    -10.285 -0.8304E-23 -0.6526E-24 -0.1633E-24
    -10.225 -0.4821E-21 -0.3790E-22 -0.9486E-23
    -10.165 -0.2334E-19 -0.1835E-20 -0.4596E-21
    -10.105 -0.9419E-18 -0.7407E-19 -0.1857E-19
    -10.045 -0.3073E-16 -0.2418E-17 -0.6068E-18
     -9.985 -0.8593E-15 -0.6765E-16 -0.1701E-16
     -9.925 -0.1997E-13 -0.1574E-14 -0.3964E-15
     -9.865 -0.3867E-12 -0.3050E-13 -0.7706E-14
     -9.805 -0.6229E-11 -0.4921E-12 -0.1249E-12
     -9.745 -0.8348E-10 -0.6610E-11 -0.1687E-11
     -9.685 -0.9305E-09 -0.7391E-10 -0.1901E-10
     -9.625 -0.8626E-08 -0.6880E-09 -0.1788E-09
     -9.565 -0.6648E-07 -0.5332E-08 -0.1406E-08
     -9.506 -0.4259E-06 -0.3442E-07 -0.9244E-08
     -9.446 -0.2266E-05 -0.1850E-06 -0.5087E-07
     -9.386 -0.1000E-04 -0.8268E-06 -0.2341E-06
     -9.326 -0.3647E-04 -0.3063E-05 -0.8989E-06
     -9.266 -0.1089E-03 -0.9331E-05 -0.2857E-05
     -9.206 -0.2610E-03 -0.2294E-04 -0.7399E-05
     -9.146 -0.4785E-03 -0.4357E-04 -0.1510E-04
     -9.086 -0.5750E-03 -0.5626E-04 -0.2236E-04
     -9.026 -0.7286E-04 -0.1969E-04 -0.1734E-04
     -8.966  0.1682E-02  0.1255E-03  0.1857E-04
     -8.906  0.4997E-02  0.4123E-03  0.9914E-04
     -8.846  0.9235E-02  0.7972E-03  0.2242E-03
     -8.786  0.1297E-01  0.1178E-02  0.3941E-03
     -8.726  0.1507E-01  0.1487E-02  0.6305E-03
     -8.667  0.1557E-01  0.1733E-02  0.9472E-03
     -8.607  0.1516E-01  0.1916E-02  0.1270E-02
     -8.547  0.1421E-01  0.1960E-02  0.1432E-02
     -8.487  0.1278E-01  0.1801E-02  0.1325E-02
     -8.427  0.1132E-01  0.1527E-02  0.1048E-02
     -8.367  0.1047E-01  0.1345E-02  0.8780E-03
     -8.307  0.1070E-01  0.1425E-02  0.1068E-02
     -8.247  0.1253E-01  0.1849E-02  0.1713E-02
     -8.187  0.1698E-01  0.2635E-02  0.2713E-02
     -8.127  0.2442E-01  0.3661E-02  0.3628E-02
     -8.067  0.3299E-01  0.4546E-02  0.3409E-02
     -8.007  0.3927E-01  0.4801E-02  0.5856E-03
     -7.947  0.4173E-01  0.4309E-02 -0.5059E-02
     -7.888  0.4315E-01  0.3635E-02 -0.9279E-02
     -7.828  0.4831E-01  0.3679E-02 -0.8940E-03
     -7.768  0.5904E-01  0.4972E-02  0.3623E-01
     -7.708  0.7256E-01  0.7425E-02  0.1162E+00
     -7.648  0.8502E-01  0.1075E-01  0.2453E+00
     -7.588  0.9551E-01  0.1502E-01  0.4242E+00
     -7.528  0.1057E+00  0.2065E-01  0.6543E+00
     -7.468  0.1164E+00  0.2793E-01  0.9353E+00
     -7.408  0.1277E+00  0.3651E-01  0.1251E+01
     -7.348  0.1401E+00  0.4536E-01  0.1558E+01
     -7.288  0.1544E+00  0.5313E-01  0.1805E+01
     -7.228  0.1682E+00  0.5875E-01  0.1963E+01
     -7.168  0.1749E+00  0.6164E-01  0.2035E+01
     -7.108  0.1685E+00  0.6157E-01  0.2044E+01
     -7.049  0.1498E+00  0.5850E-01  0.2005E+01
     -6.989  0.1255E+00  0.5274E-01  0.1923E+01
     -6.929  0.1033E+00  0.4515E-01  0.1811E+01
     -6.869  0.8614E-01  0.3713E-01  0.1702E+01
     -6.809  0.7234E-01  0.3017E-01  0.1636E+01
     -6.749  0.5990E-01  0.2525E-01  0.1630E+01
     -6.689  0.4882E-01  0.2255E-01  0.1666E+01
     -6.629  0.4009E-01  0.2146E-01  0.1703E+01
     -6.569  0.3379E-01  0.2102E-01  0.1715E+01
     -6.509  0.2909E-01  0.2054E-01  0.1725E+01
     -6.449  0.2545E-01  0.1989E-01  0.1787E+01
     -6.389  0.2315E-01  0.1938E-01  0.1927E+01
     -6.329  0.2265E-01  0.1927E-01  0.2102E+01
     -6.269  0.2383E-01  0.1950E-01  0.2238E+01
     -6.210  0.2611E-01  0.1989E-01  0.2309E+01
     -6.150  0.2917E-01  0.2042E-01  0.2375E+01
     -6.090  0.3291E-01  0.2119E-01  0.2509E+01
     -6.030  0.3695E-01  0.2209E-01  0.2720E+01
     -5.970  0.4028E-01  0.2274E-01  0.2943E+01
     -5.910  0.4196E-01  0.2297E-01  0.3122E+01
     -5.850  0.4188E-01  0.2314E-01  0.3254E+01
     -5.790  0.4086E-01  0.2401E-01  0.3355E+01
     -5.730  0.3986E-01  0.2609E-01  0.3415E+01
     -5.670  0.3940E-01  0.2930E-01  0.3402E+01
     -5.610  0.3956E-01  0.3297E-01  0.3308E+01
     -5.550  0.4013E-01  0.3624E-01  0.3173E+01
     -5.490  0.4088E-01  0.3845E-01  0.3063E+01
     -5.430  0.4168E-01  0.3936E-01  0.3029E+01
     -5.371  0.4258E-01  0.3909E-01  0.3079E+01
     -5.311  0.4364E-01  0.3807E-01  0.3180E+01
     -5.251  0.4461E-01  0.3689E-01  0.3288E+01
     -5.191  0.4480E-01  0.3607E-01  0.3369E+01
     -5.131  0.4329E-01  0.3572E-01  0.3396E+01
     -5.071  0.3960E-01  0.3547E-01  0.3338E+01
     -5.011  0.3409E-01  0.3491E-01  0.3176E+01
     -4.951  0.2796E-01  0.3393E-01  0.2943E+01
     -4.891  0.2278E-01  0.3281E-01  0.2736E+01
     -4.831  0.1986E-01  0.3179E-01  0.2666E+01
     -4.771  0.1975E-01  0.3089E-01  0.2780E+01
     -4.711  0.2214E-01  0.3004E-01  0.3039E+01
     -4.651  0.2621E-01  0.2920E-01  0.3350E+01
     -4.592  0.3103E-01  0.2833E-01  0.3617E+01
     -4.532  0.3554E-01  0.2720E-01  0.3757E+01
     -4.472  0.3831E-01  0.2528E-01  0.3688E+01
     -4.412  0.3797E-01  0.2217E-01  0.3351E+01
     -4.352  0.3439E-01  0.1817E-01  0.2767E+01
     -4.292  0.2935E-01  0.1445E-01  0.2058E+01
     -4.232  0.2581E-01  0.1236E-01  0.1397E+01
     -4.172  0.2588E-01  0.1249E-01  0.9014E+00
     -4.112  0.2962E-01  0.1427E-01  0.5916E+00
     -4.052  0.3535E-01  0.1643E-01  0.4174E+00
     -3.992  0.4121E-01  0.1784E-01  0.3208E+00
     -3.932  0.4604E-01  0.1802E-01  0.2656E+00
     -3.872  0.4916E-01  0.1710E-01  0.2325E+00
     -3.812  0.5002E-01  0.1555E-01  0.2075E+00
     -3.753  0.4855E-01  0.1382E-01  0.1820E+00
     -3.693  0.4592E-01  0.1222E-01  0.1558E+00
     -3.633  0.4451E-01  0.1094E-01  0.1350E+00
     -3.573  0.4643E-01  0.1015E-01  0.1252E+00
     -3.513  0.5167E-01  0.1015E-01  0.1270E+00
     -3.453  0.5828E-01  0.1128E-01  0.1361E+00
     -3.393  0.6417E-01  0.1361E-01  0.1457E+00
     -3.333  0.6822E-01  0.1679E-01  0.1501E+00
     -3.273  0.6971E-01  0.2006E-01  0.1469E+00
     -3.213  0.6800E-01  0.2283E-01  0.1385E+00
     -3.153  0.6347E-01  0.2505E-01  0.1303E+00
     -3.093  0.5771E-01  0.2718E-01  0.1258E+00
     -3.033  0.5224E-01  0.2959E-01  0.1239E+00
     -2.973  0.4748E-01  0.3201E-01  0.1206E+00
     -2.914  0.4308E-01  0.3359E-01  0.1139E+00
     -2.854  0.3900E-01  0.3365E-01  0.1056E+00
     -2.794  0.3587E-01  0.3242E-01  0.9946E-01
     -2.734  0.3437E-01  0.3102E-01  0.9826E-01
     -2.674  0.3431E-01  0.3070E-01  0.1031E+00
     -2.614  0.3447E-01  0.3215E-01  0.1133E+00
     -2.554  0.3388E-01  0.3567E-01  0.1279E+00
     -2.494  0.3331E-01  0.4178E-01  0.1461E+00
     -2.434  0.3513E-01  0.5109E-01  0.1681E+00
     -2.374  0.4101E-01  0.6310E-01  0.1929E+00
     -2.314  0.4954E-01  0.7489E-01  0.2163E+00
     -2.254  0.5662E-01  0.8176E-01  0.2307E+00
     -2.194  0.5854E-01  0.8006E-01  0.2297E+00
     -2.135  0.5470E-01  0.7006E-01  0.2129E+00
     -2.075  0.4742E-01  0.5599E-01  0.1866E+00
     -2.015  0.3963E-01  0.4305E-01  0.1587E+00
     -1.955  0.3321E-01  0.3437E-01  0.1340E+00
     -1.895  0.2884E-01  0.3024E-01  0.1137E+00
     -1.835  0.2629E-01  0.2919E-01  0.9748E-01
     -1.775  0.2469E-01  0.2933E-01  0.8434E-01
     -1.715  0.2323E-01  0.2930E-01  0.7337E-01
     -1.655  0.2189E-01  0.2880E-01  0.6430E-01
     -1.595  0.2137E-01  0.2865E-01  0.5768E-01
     -1.535  0.2222E-01  0.2994E-01  0.5424E-01
     -1.475  0.2412E-01  0.3286E-01  0.5379E-01
     -1.415  0.2627E-01  0.3630E-01  0.5493E-01
     -1.355  0.2846E-01  0.3880E-01  0.5589E-01
     -1.296  0.3168E-01  0.3989E-01  0.5602E-01
     -1.236  0.3744E-01  0.4059E-01  0.5631E-01
     -1.176  0.4608E-01  0.4271E-01  0.5838E-01
     -1.116  0.5563E-01  0.4768E-01  0.6253E-01
     -1.056  0.6292E-01  0.5555E-01  0.6698E-01
     -0.996  0.6592E-01  0.6471E-01  0.6911E-01
     -0.936  0.6457E-01  0.7217E-01  0.6735E-01
     -0.876  0.5966E-01  0.7454E-01  0.6209E-01
     -0.816  0.5168E-01  0.6976E-01  0.5490E-01
     -0.756  0.4149E-01  0.5863E-01  0.4742E-01
     -0.696  0.3133E-01  0.4479E-01  0.4084E-01
     -0.636  0.2433E-01  0.3285E-01  0.3613E-01
     -0.576  0.2237E-01  0.2616E-01  0.3426E-01
     -0.516  0.2462E-01  0.2584E-01  0.3568E-01
     -0.457  0.2840E-01  0.3169E-01  0.4002E-01
     -0.397  0.3202E-01  0.4319E-01  0.4669E-01
     -0.337  0.3682E-01  0.5942E-01  0.5551E-01
     -0.277  0.4589E-01  0.7781E-01  0.6628E-01
     -0.217  0.6038E-01  0.9376E-01  0.7771E-01
     -0.157  0.7683E-01  0.1025E+00  0.8738E-01
     -0.097  0.8850E-01  0.1020E+00  0.9314E-01
     -0.037  0.8962E-01  0.9426E-01  0.9424E-01
      0.023  0.7902E-01  0.8334E-01  0.9088E-01
      0.083  0.6071E-01  0.7206E-01  0.8302E-01
      0.143  0.4130E-01  0.6066E-01  0.7058E-01
      0.203  0.2617E-01  0.4859E-01  0.5509E-01
      0.263  0.1721E-01  0.3720E-01  0.4052E-01
      0.323  0.1353E-01  0.3017E-01  0.3176E-01
      0.382  0.1343E-01  0.3082E-01  0.3149E-01
      0.442  0.1544E-01  0.3923E-01  0.3817E-01
      0.502  0.1831E-01  0.5233E-01  0.4712E-01
      0.562  0.2127E-01  0.6675E-01  0.5389E-01
      0.622  0.2424E-01  0.8046E-01  0.5668E-01
      0.682  0.2719E-01  0.9162E-01  0.5595E-01
      0.742  0.2938E-01  0.9747E-01  0.5289E-01
      0.802  0.2983E-01  0.9609E-01  0.4893E-01
      0.862  0.2861E-01  0.8918E-01  0.4620E-01
      0.922  0.2735E-01  0.8208E-01  0.4706E-01
      0.982  0.2786E-01  0.8018E-01  0.5221E-01
      1.042  0.3047E-01  0.8524E-01  0.5951E-01
      1.102  0.3348E-01  0.9487E-01  0.6527E-01
      1.161  0.3455E-01  0.1047E+00  0.6690E-01
      1.221  0.3246E-01  0.1106E+00  0.6428E-01
      1.281  0.2787E-01  0.1096E+00  0.5879E-01
      1.341  0.2247E-01  0.1003E+00  0.5175E-01
      1.401  0.1766E-01  0.8396E-01  0.4378E-01
      1.461  0.1398E-01  0.6412E-01  0.3530E-01
      1.521  0.1158E-01  0.4619E-01  0.2761E-01
      1.581  0.1087E-01  0.3599E-01  0.2332E-01
      1.641  0.1255E-01  0.3744E-01  0.2513E-01
      1.701  0.1644E-01  0.4909E-01  0.3341E-01
      1.761  0.2079E-01  0.6336E-01  0.4519E-01
      1.821  0.2319E-01  0.7117E-01  0.5610E-01
      1.881  0.2251E-01  0.6850E-01  0.6289E-01
      1.941  0.1940E-01  0.5830E-01  0.6387E-01
      2.000  0.1530E-01  0.4674E-01  0.5830E-01
      2.060  0.1130E-01  0.3870E-01  0.4703E-01
      2.120  0.8072E-02  0.3635E-01  0.3355E-01
      2.180  0.6247E-02  0.3952E-01  0.2276E-01
      2.240  0.6355E-02  0.4633E-01  0.1781E-01
      2.300  0.8385E-02  0.5423E-01  0.1839E-01
      2.360  0.1160E-01  0.6160E-01  0.2189E-01
      2.420  0.1483E-01  0.6833E-01  0.2595E-01
      2.480  0.1711E-01  0.7419E-01  0.2974E-01
      2.540  0.1813E-01  0.7724E-01  0.3329E-01
      2.600  0.1843E-01  0.7543E-01  0.3634E-01
      2.660  0.1907E-01  0.6947E-01  0.3813E-01
      2.720  0.2083E-01  0.6261E-01  0.3813E-01
      2.780  0.2350E-01  0.5683E-01  0.3634E-01
      2.839  0.2585E-01  0.5099E-01  0.3309E-01
      2.899  0.2645E-01  0.4354E-01  0.2894E-01
      2.959  0.2461E-01  0.3551E-01  0.2485E-01
      3.019  0.2089E-01  0.2988E-01  0.2195E-01
      3.079  0.1699E-01  0.2845E-01  0.2076E-01
      3.139  0.1525E-01  0.3028E-01  0.2089E-01
      3.199  0.1757E-01  0.3311E-01  0.2167E-01
      3.259  0.2404E-01  0.3597E-01  0.2319E-01
      3.319  0.3232E-01  0.3978E-01  0.2643E-01
      3.379  0.3908E-01  0.4531E-01  0.3193E-01
      3.439  0.4255E-01  0.5120E-01  0.3875E-01
      3.499  0.4372E-01  0.5478E-01  0.4486E-01
      3.559  0.4511E-01  0.5483E-01  0.4877E-01
      3.618  0.4832E-01  0.5277E-01  0.5048E-01
      3.678  0.5301E-01  0.5088E-01  0.5086E-01
      3.738  0.5847E-01  0.5013E-01  0.5081E-01
      3.798  0.6561E-01  0.5013E-01  0.5129E-01
      3.858  0.7609E-01  0.5053E-01  0.5362E-01
      3.918  0.8947E-01  0.5164E-01  0.5866E-01
      3.978  0.1023E+00  0.5401E-01  0.6560E-01
      4.038  0.1110E+00  0.5799E-01  0.7192E-01
      4.098  0.1137E+00  0.6357E-01  0.7517E-01
      4.158  0.1110E+00  0.7008E-01  0.7489E-01
      4.218  0.1050E+00  0.7612E-01  0.7297E-01
      4.278  0.1002E+00  0.8050E-01  0.7227E-01
      4.338  0.1015E+00  0.8315E-01  0.7465E-01
      4.398  0.1106E+00  0.8478E-01  0.7941E-01
      4.457  0.1239E+00  0.8519E-01  0.8312E-01
      4.517  0.1338E+00  0.8239E-01  0.8141E-01
      4.577  0.1328E+00  0.7389E-01  0.7188E-01
      4.637  0.1168E+00  0.5914E-01  0.5581E-01
      4.697  0.8801E-01  0.4057E-01  0.3730E-01
      4.757  0.5434E-01  0.2255E-01  0.2073E-01
      4.817  0.2514E-01  0.8931E-02  0.8753E-02
      4.877  0.6247E-02  0.1271E-02  0.1900E-02
      4.937 -0.2189E-02 -0.1305E-02 -0.8526E-03
      4.997 -0.3777E-02 -0.9471E-03 -0.1149E-02
      5.057 -0.2603E-02  0.2694E-03 -0.5037E-03
      5.117 -0.1192E-02  0.1085E-02  0.1126E-03
      5.177 -0.3754E-03  0.1156E-02  0.3482E-03
      5.237 -0.7720E-04  0.7466E-03  0.2773E-03
      5.296 -0.1861E-04  0.2778E-03  0.1125E-03
      5.356 -0.1908E-04 -0.4365E-05 -0.1805E-05
      5.416 -0.1801E-04 -0.8854E-04 -0.3865E-04
      5.476 -0.1131E-04 -0.7208E-04 -0.3216E-04
      5.536 -0.5156E-05 -0.3683E-04 -0.1673E-04
      5.596 -0.1808E-05 -0.1395E-04 -0.6435E-05
      5.656 -0.5027E-06 -0.4130E-05 -0.1934E-05
      5.716 -0.1128E-06 -0.9799E-06 -0.4651E-06
      5.776 -0.2066E-07 -0.1888E-06 -0.9079E-07
      5.836 -0.3107E-08 -0.2977E-07 -0.1450E-07
      5.896 -0.3857E-09 -0.3862E-08 -0.1904E-08
      5.956 -0.3965E-10 -0.4137E-09 -0.2064E-09
      6.016 -0.3384E-11 -0.3668E-10 -0.1851E-10
      6.076 -0.2401E-12 -0.2698E-11 -0.1377E-11
      6.135 -0.1419E-13 -0.1648E-12 -0.8500E-13
      6.195 -0.6987E-15 -0.8373E-14 -0.4362E-14
      6.255 -0.2860E-16 -0.3531E-15 -0.1858E-15
      6.315 -0.1045E-17 -0.1286E-16 -0.6694E-17
      6.375 -0.3633E-19 -0.5859E-18 -0.3636E-18
      6.435  0.0000E+00  0.0000E+00  0.0000E+00
      6.495  0.0000E+00  0.0000E+00  0.0000E+00
      6.555  0.0000E+00  0.0000E+00  0.0000E+00
      6.615  0.0000E+00  0.0000E+00  0.0000E+00
      6.675  0.0000E+00  0.0000E+00  0.0000E+00
      6.735  0.0000E+00  0.0000E+00  0.0000E+00
      6.795  0.0000E+00  0.0000E+00  0.0000E+00
      6.855  0.0000E+00  0.0000E+00  0.0000E+00
      6.914  0.0000E+00  0.0000E+00  0.0000E+00
      6.974  0.0000E+00  0.0000E+00  0.0000E+00
      7.034  0.0000E+00  0.0000E+00  0.0000E+00
      7.094  0.0000E+00  0.0000E+00  0.0000E+00
      7.09426712    -10.88385393  301     -1.37597535      1.00000000
    -10.884  0.0000E+00  0.0000E+00  0.0000E+00
    -10.824  0.0000E+00  0.0000E+00  0.0000E+00
    -10.764  0.0000E+00  0.0000E+00  0.0000E+00
    -10.704  0.0000E+00  0.0000E+00  0.0000E+00
    -10.644  0.0000E+00  0.0000E+00  0.0000E+00
    -10.584  0.0000E+00  0.0000E+00  0.0000E+00
    -10.524 -0.1294E-30 -0.1051E-31 -0.1202E-32
    -10.464 -0.1541E-28 -0.1251E-29 -0.1432E-30
    -10.404 -0.1543E-26 -0.1254E-27 -0.1436E-28
    -10.345 -0.1288E-24 -0.1047E-25 -0.1200E-26
    -10.285 -0.8970E-23 -0.7288E-24 -0.8359E-25
    -10.225 -0.5208E-21 -0.4232E-22 -0.4858E-23
    -10.165 -0.2521E-19 -0.2049E-20 -0.2355E-21
    -10.105 -0.1017E-17 -0.8271E-19 -0.9523E-20
    -10.045 -0.3319E-16 -0.2700E-17 -0.3117E-18
     -9.985 -0.9282E-15 -0.7553E-16 -0.8751E-17
     -9.925 -0.2157E-13 -0.1757E-14 -0.2044E-15
     -9.865 -0.4177E-12 -0.3405E-13 -0.3987E-14
     -9.805 -0.6729E-11 -0.5493E-12 -0.6490E-13
     -9.745 -0.9018E-10 -0.7376E-11 -0.8822E-12
     -9.685 -0.1005E-08 -0.8245E-10 -0.1003E-10
     -9.625 -0.9320E-08 -0.7672E-09 -0.9535E-10
     -9.565 -0.7184E-07 -0.5943E-08 -0.7603E-09
     -9.506 -0.4603E-06 -0.3833E-07 -0.5089E-08
     -9.446 -0.2450E-05 -0.2058E-06 -0.2862E-07
     -9.386 -0.1081E-04 -0.9188E-06 -0.1352E-06
     -9.326 -0.3943E-04 -0.3399E-05 -0.5344E-06
     -9.266 -0.1178E-03 -0.1033E-04 -0.1754E-05
     -9.206 -0.2824E-03 -0.2534E-04 -0.4709E-05
     -9.146 -0.5177E-03 -0.4797E-04 -0.1004E-04
     -9.086 -0.6217E-03 -0.6144E-04 -0.1594E-04
     -9.026 -0.7599E-04 -0.1989E-04 -0.1535E-04
     -8.966  0.1831E-02  0.1424E-03  0.3516E-05
     -8.906  0.5432E-02  0.4613E-03  0.5093E-04
     -8.846  0.1003E-01  0.8861E-03  0.1322E-03
     -8.786  0.1404E-01  0.1298E-02  0.2594E-03
     -8.726  0.1618E-01  0.1611E-02  0.4618E-03
     -8.667  0.1646E-01  0.1833E-02  0.7507E-03
     -8.607  0.1567E-01  0.1980E-02  0.1051E-02
     -8.547  0.1442E-01  0.1998E-02  0.1206E-02
     -8.487  0.1312E-01  0.1854E-02  0.1106E-02
     -8.427  0.1259E-01  0.1662E-02  0.8208E-03
     -8.367  0.1379E-01  0.1640E-02  0.5715E-03
     -8.307  0.1682E-01  0.1934E-02  0.5998E-03
     -8.247  0.2095E-01  0.2543E-02  0.1080E-02
     -8.187  0.2536E-01  0.3378E-02  0.2023E-02
     -8.127  0.2972E-01  0.4269E-02  0.2972E-02
     -8.067  0.3355E-01  0.4899E-02  0.2602E-02
     -8.007  0.3570E-01  0.4898E-02 -0.9525E-03
     -7.947  0.3540E-01  0.4214E-02 -0.8025E-02
     -7.888  0.3441E-01  0.3397E-02 -0.1364E-01
     -7.828  0.3749E-01  0.3352E-02 -0.4266E-02
     -7.768  0.4954E-01  0.4709E-02  0.4115E-01
     -7.708  0.7160E-01  0.7455E-02  0.1444E+00
     -7.648  0.1002E+00  0.1130E-01  0.3204E+00
     -7.588  0.1307E+00  0.1638E-01  0.5765E+00
     -7.528  0.1606E+00  0.2360E-01  0.9161E+00
     -7.468  0.1884E+00  0.3375E-01  0.1332E+01
     -7.408  0.2104E+00  0.4600E-01  0.1788E+01
     -7.348  0.2200E+00  0.5748E-01  0.2204E+01
     -7.288  0.2114E+00  0.6490E-01  0.2494E+01
     -7.228  0.1857E+00  0.6709E-01  0.2612E+01
     -7.168  0.1516E+00  0.6553E-01  0.2576E+01
     -7.108  0.1204E+00  0.6228E-01  0.2429E+01
     -7.049  0.9841E-01  0.5803E-01  0.2195E+01
     -6.989  0.8436E-01  0.5242E-01  0.1898E+01
     -6.929  0.7268E-01  0.4564E-01  0.1594E+01
     -6.869  0.5908E-01  0.3878E-01  0.1365E+01
     -6.809  0.4367E-01  0.3294E-01  0.1264E+01
     -6.749  0.2982E-01  0.2860E-01  0.1276E+01
     -6.689  0.2075E-01  0.2566E-01  0.1336E+01
     -6.629  0.1715E-01  0.2381E-01  0.1377E+01
     -6.569  0.1734E-01  0.2263E-01  0.1389E+01
     -6.509  0.1912E-01  0.2176E-01  0.1433E+01
     -6.449  0.2105E-01  0.2100E-01  0.1593E+01
     -6.389  0.2252E-01  0.2033E-01  0.1887E+01
     -6.329  0.2332E-01  0.1973E-01  0.2224E+01
     -6.269  0.2362E-01  0.1923E-01  0.2467E+01
     -6.210  0.2414E-01  0.1900E-01  0.2557E+01
     -6.150  0.2577E-01  0.1944E-01  0.2576E+01
     -6.090  0.2868E-01  0.2082E-01  0.2665E+01
     -6.030  0.3185E-01  0.2296E-01  0.2889E+01
     -5.970  0.3372E-01  0.2519E-01  0.3173E+01
     -5.910  0.3356E-01  0.2695E-01  0.3380E+01
     -5.850  0.3220E-01  0.2821E-01  0.3414E+01
     -5.790  0.3151E-01  0.2944E-01  0.3276E+01
     -5.730  0.3295E-01  0.3118E-01  0.3040E+01
     -5.670  0.3654E-01  0.3363E-01  0.2801E+01
     -5.610  0.4103E-01  0.3637E-01  0.2624E+01
     -5.550  0.4491E-01  0.3855E-01  0.2526E+01