  64  64   1   0
  0.3948486E+02  0.1050118E-08  0.1050933E-08  0.2643308E-08  0.1000000E-15
  1.000000000000000E-004
  CAR 
 unknown system                          
      7.50011371    -12.41560122  301     -1.61276510      1.00000000
    -12.416  0.0000E+00  0.0000E+00
    -12.349  0.0000E+00  0.0000E+00
    -12.283  0.0000E+00  0.0000E+00
    -12.216  0.0000E+00  0.0000E+00
    -12.150  0.0000E+00  0.0000E+00
    -12.084  0.0000E+00  0.0000E+00
    -12.017 -0.2981E-29 -0.1979E-30
    -11.951 -0.5183E-27 -0.3461E-28
    -11.885 -0.7248E-25 -0.4846E-26
    -11.818 -0.8112E-23 -0.5434E-24
    -11.752 -0.7265E-21 -0.4877E-22
    -11.685 -0.5204E-19 -0.3504E-20
    -11.619 -0.2982E-17 -0.2014E-18
    -11.553 -0.1324E-15 -0.8989E-17
    -11.486 -0.4827E-14 -0.3294E-15
    -11.420 -0.1404E-12 -0.9650E-14
    -11.353 -0.3258E-11 -0.2260E-12
    -11.287 -0.6028E-10 -0.4228E-11
    -11.221 -0.8883E-09 -0.6320E-10
    -11.154 -0.1042E-07 -0.7549E-09
    -11.088 -0.9725E-07 -0.7211E-08
    -11.022 -0.7217E-06 -0.5512E-07
    -10.955 -0.4256E-05 -0.3376E-06
    -10.889 -0.1991E-04 -0.1660E-05
    -10.822 -0.7359E-04 -0.6545E-05
    -10.756 -0.2120E-03 -0.2062E-04
    -10.690 -0.4584E-03 -0.5105E-04
    -10.623 -0.6530E-03 -0.9440E-04
    -10.557 -0.2114E-03 -0.1084E-03
    -10.490  0.1860E-02  0.1504E-04
    -10.424  0.6164E-02  0.4242E-03
    -10.358  0.1167E-01  0.1199E-02
    -10.291  0.1592E-01  0.2256E-02
    -10.225  0.1767E-01  0.3429E-02
    -10.158  0.1855E-01  0.4660E-02
    -10.092  0.2055E-01  0.6025E-02
    -10.026  0.2242E-01  0.7513E-02
     -9.959  0.2124E-01  0.8922E-02
     -9.893  0.1674E-01  0.1003E-01
     -9.827  0.1187E-01  0.1082E-01
     -9.760  0.9626E-02  0.1146E-01
     -9.694  0.1087E-01  0.1218E-01
     -9.627  0.1484E-01  0.1317E-01
     -9.561  0.2027E-01  0.1451E-01
     -9.495  0.2584E-01  0.1623E-01
     -9.428  0.2990E-01  0.1821E-01
     -9.362  0.3069E-01  0.2025E-01
     -9.295  0.2801E-01  0.2211E-01
     -9.229  0.2418E-01  0.2372E-01
     -9.163  0.2200E-01  0.2518E-01
     -9.096  0.2229E-01  0.2666E-01
     -9.030  0.2505E-01  0.2832E-01
     -8.964  0.3121E-01  0.3039E-01
     -8.897  0.4039E-01  0.3307E-01
     -8.831  0.4853E-01  0.3629E-01
     -8.764  0.5083E-01  0.3967E-01
     -8.698  0.4636E-01  0.4275E-01
     -8.632  0.3831E-01  0.4529E-01
     -8.565  0.3126E-01  0.4736E-01
     -8.499  0.2856E-01  0.4926E-01
     -8.432  0.3092E-01  0.5131E-01
     -8.366  0.3751E-01  0.5380E-01
     -8.300  0.4739E-01  0.5695E-01
     -8.233  0.5838E-01  0.6082E-01
     -8.167  0.6564E-01  0.6518E-01
     -8.101  0.6486E-01  0.6949E-01
     -8.034  0.5734E-01  0.7329E-01
     -7.968  0.4979E-01  0.7660E-01
     -7.901  0.4945E-01  0.7988E-01
     -7.835  0.5928E-01  0.8382E-01
     -7.769  0.7580E-01  0.8885E-01
     -7.702  0.9063E-01  0.9487E-01
     -7.636  0.9789E-01  0.1014E+00
     -7.569  0.1013E+00  0.1081E+00
     -7.503  0.1108E+00  0.1154E+00
     -7.437  0.1302E+00  0.1241E+00
     -7.370  0.1525E+00  0.1342E+00
     -7.304  0.1667E+00  0.1453E+00
     -7.238  0.1675E+00  0.1564E+00
     -7.171  0.1601E+00  0.1670E+00
     -7.105  0.1559E+00  0.1774E+00
     -7.038  0.1662E+00  0.1884E+00
     -6.972  0.1936E+00  0.2013E+00
     -6.906  0.2303E+00  0.2166E+00
     -6.839  0.2631E+00  0.2340E+00
     -6.773  0.2824E+00  0.2528E+00
     -6.706  0.2880E+00  0.2719E+00
     -6.640  0.2864E+00  0.2909E+00
     -6.574  0.2850E+00  0.3098E+00
     -6.507  0.2884E+00  0.3290E+00
     -6.441  0.2976E+00  0.3487E+00
     -6.375  0.3109E+00  0.3694E+00
     -6.308  0.3244E+00  0.3909E+00
     -6.242  0.3349E+00  0.4131E+00
     -6.175  0.3406E+00  0.4357E+00
     -6.109  0.3422E+00  0.4585E+00
     -6.043  0.3426E+00  0.4812E+00
     -5.976  0.3447E+00  0.5041E+00
     -5.910  0.3493E+00  0.5273E+00
     -5.843  0.3548E+00  0.5508E+00
     -5.777  0.3607E+00  0.5748E+00
     -5.711  0.3679E+00  0.5992E+00
     -5.644  0.3777E+00  0.6243E+00
     -5.578  0.3892E+00  0.6501E+00
     -5.511  0.4006E+00  0.6767E+00
     -5.445  0.4110E+00  0.7040E+00
     -5.379  0.4219E+00  0.7320E+00
     -5.312  0.4339E+00  0.7608E+00
     -5.246  0.4458E+00  0.7904E+00
     -5.180  0.4564E+00  0.8207E+00
     -5.113  0.4665E+00  0.8517E+00
     -5.047  0.4794E+00  0.8835E+00
     -4.980  0.4977E+00  0.9165E+00
     -4.914  0.5214E+00  0.9512E+00
     -4.848  0.5491E+00  0.9876E+00
     -4.781  0.5809E+00  0.1026E+01
     -4.715  0.6193E+00  0.1067E+01
     -4.648  0.6677E+00  0.1112E+01
     -4.582  0.7253E+00  0.1160E+01
     -4.516  0.7848E+00  0.1212E+01
     -4.449  0.8377E+00  0.1267E+01
     -4.383  0.8862E+00  0.1326E+01
     -4.317  0.9505E+00  0.1389E+01
     -4.250  0.1053E+01  0.1459E+01
     -4.184  0.1189E+01  0.1538E+01
     -4.117  0.1308E+01  0.1625E+01
     -4.051  0.1348E+01  0.1715E+01
     -3.985  0.1275E+01  0.1799E+01
     -3.918  0.1122E+01  0.1874E+01
     -3.852  0.9679E+00  0.1938E+01
     -3.785  0.8945E+00  0.1997E+01
     -3.719  0.9185E+00  0.2058E+01
     -3.653  0.9804E+00  0.2123E+01
     -3.586  0.1005E+01  0.2190E+01
     -3.520  0.9765E+00  0.2255E+01
     -3.454  0.9450E+00  0.2318E+01
     -3.387  0.9589E+00  0.2381E+01
     -3.321  0.1016E+01  0.2449E+01
     -3.254  0.1079E+01  0.2520E+01
     -3.188  0.1110E+01  0.2594E+01
     -3.122  0.1094E+01  0.2667E+01
     -3.055  0.1032E+01  0.2735E+01
     -2.989  0.9361E+00  0.2797E+01
     -2.922  0.8276E+00  0.2852E+01
     -2.856  0.7306E+00  0.2901E+01
     -2.790  0.6599E+00  0.2945E+01
     -2.723  0.6176E+00  0.2986E+01
     -2.657  0.5990E+00  0.3025E+01
     -2.591  0.5964E+00  0.3065E+01
     -2.524  0.6001E+00  0.3105E+01
     -2.458  0.5974E+00  0.3145E+01
     -2.391  0.5762E+00  0.3183E+01
     -2.325  0.5326E+00  0.3218E+01
     -2.259  0.4759E+00  0.3250E+01
     -2.192  0.4213E+00  0.3278E+01
     -2.126  0.3767E+00  0.3303E+01
     -2.059  0.3381E+00  0.3325E+01
     -1.993  0.2988E+00  0.3345E+01
     -1.927  0.2583E+00  0.3362E+01
     -1.860  0.2209E+00  0.3377E+01
     -1.794  0.1921E+00  0.3390E+01
     -1.728  0.1749E+00  0.3401E+01
     -1.661  0.1667E+00  0.3412E+01
     -1.595  0.1601E+00  0.3423E+01
     -1.528  0.1492E+00  0.3433E+01
     -1.462  0.1343E+00  0.3442E+01
     -1.396  0.1196E+00  0.3450E+01
     -1.329  0.1087E+00  0.3457E+01
     -1.263  0.1033E+00  0.3464E+01
     -1.196  0.1049E+00  0.3471E+01
     -1.130  0.1150E+00  0.3478E+01
     -1.064  0.1312E+00  0.3487E+01
     -0.997  0.1461E+00  0.3497E+01
     -0.931  0.1499E+00  0.3507E+01
     -0.864  0.1381E+00  0.3516E+01
     -0.798  0.1144E+00  0.3523E+01
     -0.732  0.8779E-01  0.3529E+01
     -0.665  0.6647E-01  0.3534E+01
     -0.599  0.5583E-01  0.3537E+01
     -0.533  0.5866E-01  0.3541E+01
     -0.466  0.7454E-01  0.3546E+01
     -0.400  0.9832E-01  0.3553E+01
     -0.333  0.1212E+00  0.3561E+01
     -0.267  0.1351E+00  0.3570E+01
     -0.201  0.1377E+00  0.3579E+01
     -0.134  0.1322E+00  0.3588E+01
     -0.068  0.1237E+00  0.3596E+01
     -0.001  0.1153E+00  0.3604E+01
      0.065  0.1070E+00  0.3611E+01
      0.131  0.9805E-01  0.3617E+01
      0.198  0.8864E-01  0.3623E+01
      0.264  0.8026E-01  0.3628E+01
      0.330  0.7506E-01  0.3633E+01
      0.397  0.7583E-01  0.3638E+01
      0.463  0.8446E-01  0.3644E+01
      0.530  0.9864E-01  0.3651E+01
      0.596  0.1115E+00  0.3658E+01
      0.662  0.1166E+00  0.3666E+01
      0.729  0.1129E+00  0.3673E+01
      0.795  0.1049E+00  0.3680E+01
      0.862  0.9916E-01  0.3687E+01
      0.928  0.9962E-01  0.3693E+01
      0.994  0.1054E+00  0.3700E+01
      1.061  0.1113E+00  0.3708E+01
      1.127  0.1126E+00  0.3715E+01
      1.193  0.1072E+00  0.3722E+01
      1.260  0.9718E-01  0.3729E+01
      1.326  0.8651E-01  0.3734E+01
      1.393  0.7936E-01  0.3740E+01
      1.459  0.7755E-01  0.3745E+01
      1.525  0.8007E-01  0.3750E+01
      1.592  0.8444E-01  0.3756E+01
      1.658  0.8862E-01  0.3762E+01
      1.725  0.9221E-01  0.3768E+01
      1.791  0.9602E-01  0.3774E+01
      1.857  0.1006E+00  0.3781E+01
      1.924  0.1053E+00  0.3788E+01
      1.990  0.1080E+00  0.3795E+01
      2.056  0.1057E+00  0.3802E+01
      2.123  0.9641E-01  0.3808E+01
      2.189  0.8142E-01  0.3814E+01
      2.256  0.6542E-01  0.3818E+01
      2.322  0.5488E-01  0.3822E+01
      2.388  0.5488E-01  0.3825E+01
      2.455  0.6440E-01  0.3830E+01
      2.521  0.7476E-01  0.3835E+01
      2.588  0.7663E-01  0.3840E+01
      2.654  0.6968E-01  0.3844E+01
      2.720  0.6237E-01  0.3849E+01
      2.787  0.6173E-01  0.3853E+01
      2.853  0.6669E-01  0.3857E+01
      2.919  0.7284E-01  0.3862E+01
      2.986  0.7936E-01  0.3867E+01
      3.052  0.8758E-01  0.3873E+01
      3.119  0.9502E-01  0.3879E+01
      3.185  0.9676E-01  0.3886E+01
      3.251  0.9351E-01  0.3892E+01
      3.318  0.9325E-01  0.3898E+01
      3.384  0.1023E+00  0.3905E+01
      3.451  0.1178E+00  0.3913E+01
      3.517  0.1309E+00  0.3921E+01
      3.583  0.1366E+00  0.3931E+01
      3.650  0.1382E+00  0.3940E+01
      3.716  0.1413E+00  0.3949E+01
      3.783  0.1456E+00  0.3959E+01
      3.849  0.1457E+00  0.3968E+01
      3.915  0.1408E+00  0.3978E+01
      3.982  0.1378E+00  0.3987E+01
      4.048  0.1424E+00  0.3996E+01
      4.114  0.1500E+00  0.4006E+01
      4.181  0.1524E+00  0.4016E+01
      4.247  0.1497E+00  0.4026E+01
      4.314  0.1513E+00  0.4036E+01
      4.380  0.1652E+00  0.4047E+01
      4.446  0.1880E+00  0.4060E+01
      4.513  0.2062E+00  0.4074E+01
      4.579  0.2089E+00  0.4087E+01
      4.646  0.1996E+00  0.4101E+01
      4.712  0.1916E+00  0.4113E+01
      4.778  0.1933E+00  0.4126E+01
      4.845  0.2004E+00  0.4140E+01
      4.911  0.2025E+00  0.4153E+01
      4.977  0.1935E+00  0.4166E+01
      5.044  0.1730E+00  0.4177E+01
      5.110  0.1416E+00  0.4187E+01
      5.177  0.1010E+00  0.4193E+01
      5.243  0.5851E-01  0.4197E+01
      5.309  0.2533E-01  0.4199E+01
      5.376  0.7588E-02  0.4199E+01
      5.442  0.2376E-02  0.4200E+01
      5.509  0.2370E-02  0.4200E+01
      5.575  0.2408E-02  0.4200E+01
      5.641  0.1408E-02  0.4200E+01
      5.708  0.2875E-03  0.4200E+01
      5.774 -0.2621E-03  0.4200E+01
      5.840 -0.3054E-03  0.4200E+01
      5.907 -0.1749E-03  0.4200E+01
      5.973 -0.6844E-04  0.4200E+01
      6.040 -0.1985E-04  0.4200E+01
      6.106 -0.4405E-05  0.4200E+01
      6.172 -0.7609E-06  0.4200E+01
      6.239 -0.1032E-06  0.4200E+01
      6.305 -0.1106E-07  0.4200E+01
      6.372 -0.9389E-09  0.4200E+01
      6.438 -0.6336E-10  0.4200E+01
      6.504 -0.3404E-11  0.4200E+01
      6.571 -0.1458E-12  0.4200E+01
      6.637 -0.4982E-14  0.4200E+01
      6.703 -0.1380E-15  0.4200E+01
      6.770 -0.2090E-17  0.4200E+01
      6.836  0.0000E+00  0.4200E+01
      6.903  0.0000E+00  0.4200E+01
      6.969  0.0000E+00  0.4200E+01
      7.035  0.0000E+00  0.4200E+01
      7.102  0.0000E+00  0.4200E+01
      7.168  0.0000E+00  0.4200E+01
      7.235  0.0000E+00  0.4200E+01
      7.301  0.0000E+00  0.4200E+01
      7.367  0.0000E+00  0.4200E+01
      7.434  0.0000E+00  0.4200E+01
      7.500  0.0000E+00  0.4200E+01
      7.50011371    -12.41560122  301     -1.61276510      1.00000000
    -12.416  0.0000E+00  0.0000E+00  0.0000E+00
    -12.349  0.0000E+00  0.0000E+00  0.0000E+00
    -12.283  0.0000E+00  0.0000E+00  0.0000E+00
    -12.216  0.0000E+00  0.0000E+00  0.0000E+00
    -12.150  0.0000E+00  0.0000E+00  0.0000E+00
    -12.084  0.0000E+00  0.0000E+00  0.0000E+00
    -12.017 -0.2845E-29 -0.3791E-30 -0.1087E-31
    -11.951 -0.4948E-27 -0.6593E-28 -0.1891E-29
    -11.885 -0.6919E-25 -0.9220E-26 -0.2645E-27
    -11.818 -0.7744E-23 -0.1032E-23 -0.2961E-25
    -11.752 -0.6935E-21 -0.9241E-22 -0.2652E-23
    -11.685 -0.4968E-19 -0.6621E-20 -0.1901E-21
    -11.619 -0.2846E-17 -0.3793E-18 -0.1090E-19
    -11.553 -0.1264E-15 -0.1684E-16 -0.4847E-18
    -11.486 -0.4608E-14 -0.6143E-15 -0.1771E-16
    -11.420 -0.1340E-12 -0.1787E-13 -0.5168E-15
    -11.353 -0.3111E-11 -0.4150E-12 -0.1205E-13
    -11.287 -0.5754E-10 -0.7681E-11 -0.2246E-12
    -11.221 -0.8479E-09 -0.1133E-09 -0.3347E-11
    -11.154 -0.9947E-08 -0.1331E-08 -0.3992E-10
    -11.088 -0.9282E-07 -0.1245E-07 -0.3820E-09
    -11.022 -0.6887E-06 -0.9266E-07 -0.2939E-08
    -10.955 -0.4060E-05 -0.5489E-06 -0.1824E-07
    -10.889 -0.1899E-04 -0.2585E-05 -0.9151E-07
    -10.822 -0.7012E-04 -0.9641E-05 -0.3704E-06
    -10.756 -0.2018E-03 -0.2812E-04 -0.1196E-05
    -10.690 -0.4355E-03 -0.6184E-04 -0.2984E-05
    -10.623 -0.6184E-03 -0.9079E-04 -0.5288E-05
    -10.557 -0.1944E-03 -0.3722E-04 -0.4788E-05
    -10.490  0.1779E-02  0.2347E-03  0.5491E-05
    -10.424  0.5875E-02  0.8115E-03  0.3100E-04
    -10.358  0.1113E-01  0.1562E-02  0.6706E-04
    -10.291  0.1525E-01  0.2169E-02  0.1033E-03
    -10.225  0.1691E-01  0.2481E-02  0.1462E-03
    -10.158  0.1740E-01  0.2722E-02  0.2229E-03
    -10.092  0.1836E-01  0.3108E-02  0.3366E-03
    -10.026  0.1904E-01  0.3416E-02  0.4306E-03
     -9.959  0.1776E-01  0.3266E-02  0.4337E-03
     -9.893  0.1486E-01  0.2698E-02  0.3451E-03
     -9.827  0.1241E-01  0.2164E-02  0.2475E-03
     -9.760  0.1190E-01  0.2062E-02  0.2362E-03
     -9.694  0.1344E-01  0.2478E-02  0.3490E-03
     -9.627  0.1625E-01  0.3240E-02  0.5571E-03
     -9.561  0.1921E-01  0.4076E-02  0.8065E-03
     -9.495  0.2131E-01  0.4750E-02  0.1054E-02
     -9.428  0.2200E-01  0.5067E-02  0.1247E-02
     -9.362  0.2158E-01  0.4899E-02  0.1304E-02
     -9.295  0.2155E-01  0.4358E-02  0.1187E-02
     -9.229  0.2354E-01  0.3872E-02  0.9898E-03
     -9.163  0.2690E-01  0.3802E-02  0.8839E-03
     -9.096  0.2876E-01  0.4084E-02  0.9702E-03
     -9.030  0.2802E-01  0.4547E-02  0.1279E-02
     -8.964  0.2773E-01  0.5356E-02  0.1846E-02
     -8.897  0.3137E-01  0.6733E-02  0.2633E-02
     -8.831  0.3824E-01  0.8394E-02  0.3431E-02
     -8.764  0.4377E-01  0.9577E-02  0.3938E-02
     -8.698  0.4357E-01  0.9557E-02  0.3951E-02
     -8.632  0.3738E-01  0.8243E-02  0.3475E-02
     -8.565  0.3025E-01  0.6487E-02  0.2732E-02
     -8.499  0.2837E-01  0.5549E-02  0.2089E-02
     -8.432  0.3264E-01  0.6096E-02  0.1989E-02
     -8.366  0.3863E-01  0.7952E-02  0.2935E-02
     -8.300  0.4246E-01  0.1060E-01  0.5191E-02
     -8.233  0.4388E-01  0.1329E-01  0.8182E-02
     -8.167  0.4321E-01  0.1485E-01  0.1048E-01
     -8.101  0.3932E-01  0.1434E-01  0.1090E-01
     -8.034  0.3213E-01  0.1215E-01  0.9713E-02
     -7.968  0.2554E-01  0.9867E-02  0.8474E-02
     -7.901  0.2638E-01  0.9054E-02  0.8978E-02
     -7.835  0.3920E-01  0.1021E-01  0.1224E-01
     -7.769  0.5989E-01  0.1267E-01  0.1776E-01
     -7.702  0.7577E-01  0.1530E-01  0.2348E-01
     -7.636  0.7674E-01  0.1762E-01  0.2767E-01
     -7.569  0.6693E-01  0.2016E-01  0.3113E-01
     -7.503  0.6088E-01  0.2359E-01  0.3632E-01
     -7.437  0.6801E-01  0.2771E-01  0.4419E-01
     -7.370  0.8436E-01  0.3170E-01  0.5283E-01
     -7.304  0.9978E-01  0.3475E-01  0.5954E-01
     -7.238  0.1088E+00  0.3611E-01  0.6360E-01
     -7.171  0.1133E+00  0.3529E-01  0.6811E-01
     -7.105  0.1183E+00  0.3299E-01  0.7965E-01
     -7.038  0.1277E+00  0.3148E-01  0.1036E+00
     -6.972  0.1410E+00  0.3332E-01  0.1377E+00
     -6.906  0.1513E+00  0.3908E-01  0.1722E+00
     -6.839  0.1508E+00  0.4627E-01  0.1973E+00
     -6.773  0.1380E+00  0.5094E-01  0.2098E+00
     -6.706  0.1201E+00  0.5072E-01  0.2111E+00
     -6.640  0.1062E+00  0.4627E-01  0.2026E+00
     -6.574  0.1015E+00  0.4021E-01  0.1866E+00
     -6.507  0.1054E+00  0.3536E-01  0.1707E+00
     -6.441  0.1140E+00  0.3373E-01  0.1656E+00
     -6.375  0.1235E+00  0.3595E-01  0.1782E+00
     -6.308  0.1320E+00  0.4075E-01  0.2060E+00
     -6.242  0.1376E+00  0.4515E-01  0.2391E+00
     -6.175  0.1354E+00  0.4628E-01  0.2671E+00
     -6.109  0.1207E+00  0.4378E-01  0.2870E+00
     -6.043  0.9604E-01  0.4022E-01  0.3056E+00
     -5.976  0.7093E-01  0.3888E-01  0.3353E+00
     -5.910  0.5332E-01  0.4112E-01  0.3861E+00
     -5.843  0.4436E-01  0.4558E-01  0.4573E+00
     -5.777  0.4054E-01  0.4940E-01  0.5347E+00
     -5.711  0.3825E-01  0.5014E-01  0.5976E+00
     -5.644  0.3571E-01  0.4731E-01  0.6340E+00
     -5.578  0.3277E-01  0.4220E-01  0.6473E+00
     -5.511  0.3010E-01  0.3660E-01  0.6501E+00
     -5.445  0.2849E-01  0.3173E-01  0.6541E+00
     -5.379  0.2860E-01  0.2816E-01  0.6660E+00
     -5.312  0.3056E-01  0.2605E-01  0.6854E+00
     -5.246  0.3365E-01  0.2533E-01  0.7065E+00
     -5.180  0.3641E-01  0.2586E-01  0.7241E+00
     -5.113  0.3752E-01  0.2758E-01  0.7398E+00
     -5.047  0.3666E-01  0.3036E-01  0.7627E+00
     -4.980  0.3455E-01  0.3348E-01  0.8059E+00
     -4.914  0.3260E-01  0.3562E-01  0.8878E+00
     -4.848  0.3245E-01  0.3594E-01  0.1028E+01
     -4.781  0.3486E-01  0.3494E-01  0.1234E+01
     -4.715  0.3882E-01  0.3413E-01  0.1486E+01
     -4.648  0.4227E-01  0.3468E-01  0.1741E+01
     -4.582  0.4387E-01  0.3678E-01  0.1964E+01
     -4.516  0.4418E-01  0.4007E-01  0.2157E+01
     -4.449  0.4534E-01  0.4420E-01  0.2364E+01
     -4.383  0.4898E-01  0.4895E-01  0.2647E+01
     -4.317  0.5419E-01  0.5437E-01  0.3077E+01
     -4.250  0.5780E-01  0.6088E-01  0.3709E+01
     -4.184  0.5704E-01  0.6863E-01  0.4506E+01
     -4.117  0.5204E-01  0.7656E-01  0.5267E+01
     -4.051  0.4558E-01  0.8253E-01  0.5691E+01
     -3.985  0.4083E-01  0.8522E-01  0.5564E+01
     -3.918  0.3934E-01  0.8555E-01  0.4962E+01
     -3.852  0.4054E-01  0.8569E-01  0.4243E+01
     -3.785  0.4253E-01  0.8623E-01  0.3823E+01
     -3.719  0.4325E-01  0.8488E-01  0.3855E+01
     -3.653  0.4159E-01  0.7864E-01  0.4130E+01
     -3.586  0.3805E-01  0.6775E-01  0.4313E+01
     -3.520  0.3443E-01  0.5663E-01  0.4259E+01
     -3.454  0.3249E-01  0.5003E-01  0.4075E+01
     -3.387  0.3259E-01  0.4889E-01  0.3930E+01
     -3.321  0.3378E-01  0.5029E-01  0.3900E+01
     -3.254  0.3510E-01  0.5108E-01  0.3967E+01
     -3.188  0.3656E-01  0.5031E-01  0.4061E+01
     -3.122  0.3839E-01  0.4846E-01  0.4079E+01
     -3.055  0.3999E-01  0.4587E-01  0.3908E+01
     -2.989  0.4021E-01  0.4279E-01  0.3506E+01
     -2.922  0.3876E-01  0.4002E-01  0.2938E+01
     -2.856  0.3663E-01  0.3861E-01  0.2349E+01
     -2.790  0.3482E-01  0.3896E-01  0.1873E+01
     -2.723  0.3318E-01  0.4073E-01  0.1565E+01
     -2.657  0.3098E-01  0.4355E-01  0.1399E+01
     -2.591  0.2823E-01  0.4730E-01  0.1324E+01
     -2.524  0.2564E-01  0.5154E-01  0.1292E+01
     -2.458  0.2362E-01  0.5470E-01  0.1257E+01
     -2.391  0.2182E-01  0.5482E-01  0.1183E+01
     -2.325  0.1997E-01  0.5141E-01  0.1050E+01
     -2.259  0.1852E-01  0.4600E-01  0.8780E+00
     -2.192  0.1804E-01  0.4087E-01  0.7059E+00
     -2.126  0.1832E-01  0.3737E-01  0.5638E+00
     -2.059  0.1842E-01  0.3595E-01  0.4574E+00
     -1.993  0.1772E-01  0.3649E-01  0.3786E+00
     -1.927  0.1667E-01  0.3831E-01  0.3181E+00
     -1.860  0.1654E-01  0.4053E-01  0.2696E+00
     -1.794  0.1872E-01  0.4302E-01  0.2312E+00
     -1.728  0.2393E-01  0.4617E-01  0.2041E+00
     -1.661  0.3127E-01  0.4953E-01  0.1874E+00
     -1.595  0.3802E-01  0.5155E-01  0.1745E+00
     -1.528  0.4137E-01  0.5150E-01  0.1593E+00
     -1.462  0.4069E-01  0.5048E-01  0.1418E+00
     -1.396  0.3756E-01  0.4986E-01  0.1269E+00
     -1.329  0.3404E-01  0.4986E-01  0.1175E+00
     -1.263  0.3175E-01  0.5056E-01  0.1114E+00
     -1.196  0.3205E-01  0.5369E-01  0.1063E+00
     -1.130  0.3540E-01  0.6180E-01  0.1040E+00
     -1.064  0.4024E-01  0.7453E-01  0.1077E+00
     -0.997  0.4369E-01  0.8661E-01  0.1160E+00
     -0.931  0.4409E-01  0.9080E-01  0.1218E+00
     -0.864  0.4198E-01  0.8385E-01  0.1188E+00
     -0.798  0.3846E-01  0.6935E-01  0.1061E+00
     -0.732  0.3350E-01  0.5409E-01  0.8785E-01
     -0.665  0.2690E-01  0.4273E-01  0.7105E-01
     -0.599  0.2055E-01  0.3722E-01  0.6308E-01
     -0.533  0.1862E-01  0.3931E-01  0.6804E-01
     -0.466  0.2431E-01  0.5035E-01  0.8333E-01
     -0.400  0.3616E-01  0.6812E-01  0.1010E+00
     -0.333  0.4881E-01  0.8652E-01  0.1131E+00
     -0.267  0.5743E-01  0.9960E-01  0.1157E+00
     -0.201  0.6059E-01  0.1053E+00  0.1085E+00
     -0.134  0.5915E-01  0.1048E+00  0.9465E-01
     -0.068  0.5424E-01  0.1004E+00  0.7919E-01
     -0.001  0.4703E-01  0.9343E-01  0.6693E-01
      0.065  0.3904E-01  0.8524E-01  0.6006E-01
      0.131  0.3151E-01  0.7771E-01  0.5789E-01
      0.198  0.2493E-01  0.7202E-01  0.5841E-01
      0.264  0.1951E-01  0.6738E-01  0.5970E-01
      0.330  0.1563E-01  0.6325E-01  0.6035E-01
      0.397  0.1368E-01  0.6254E-01  0.5986E-01
      0.463  0.1377E-01  0.6872E-01  0.5875E-01
      0.530  0.1573E-01  0.7930E-01  0.5767E-01
      0.596  0.1930E-01  0.8630E-01  0.5673E-01
      0.662  0.2411E-01  0.8499E-01  0.5598E-01
      0.729  0.2908E-01  0.7915E-01  0.5614E-01
      0.795  0.3253E-01  0.7629E-01  0.5837E-01
      0.862  0.3375E-01  0.7993E-01  0.6347E-01
      0.928  0.3434E-01  0.8763E-01  0.7093E-01
      0.994  0.3680E-01  0.9492E-01  0.7850E-01
      1.061  0.4116E-01  0.9928E-01  0.8299E-01
      1.127  0.4401E-01  0.9997E-01  0.8193E-01
      1.193  0.4162E-01  0.9590E-01  0.7505E-01
      1.260  0.3400E-01  0.8658E-01  0.6508E-01
      1.326  0.2526E-01  0.7441E-01  0.5632E-01
      1.393  0.1985E-01  0.6340E-01  0.5113E-01
      1.459  0.1894E-01  0.5593E-01  0.4856E-01
      1.525  0.2078E-01  0.5188E-01  0.4656E-01
      1.592  0.2334E-01  0.5027E-01  0.4457E-01
      1.658  0.2554E-01  0.5090E-01  0.4352E-01
      1.725  0.2692E-01  0.5485E-01  0.4462E-01
      1.791  0.2745E-01  0.6279E-01  0.4842E-01
      1.857  0.2735E-01  0.7255E-01  0.5427E-01
      1.924  0.2668E-01  0.7955E-01  0.6003E-01
      1.990  0.2509E-01  0.8028E-01  0.6257E-01
      2.056  0.2230E-01  0.7497E-01  0.5933E-01
      2.123  0.1828E-01  0.6672E-01  0.5052E-01
      2.189  0.1338E-01  0.5835E-01  0.3973E-01
      2.256  0.8578E-02  0.5118E-01  0.3196E-01
      2.322  0.5610E-02  0.4709E-01  0.3065E-01
      2.388  0.6008E-02  0.4957E-01  0.3579E-01
      2.455  0.9465E-02  0.5887E-01  0.4346E-01
      2.521  0.1330E-01  0.6782E-01  0.4767E-01
      2.588  0.1458E-01  0.6754E-01  0.4519E-01
      2.654  0.1332E-01  0.5794E-01  0.3922E-01
      2.720  0.1262E-01  0.4755E-01  0.3629E-01
      2.787  0.1512E-01  0.4292E-01  0.3874E-01
      2.853  0.2008E-01  0.4275E-01  0.4232E-01
      2.919  0.2477E-01  0.4296E-01  0.4214E-01
      2.986  0.2757E-01  0.4235E-01  0.3851E-01
      3.052  0.2856E-01  0.4121E-01  0.3494E-01
      3.119  0.2815E-01  0.3849E-01  0.3267E-01
      3.185  0.2718E-01  0.3386E-01  0.3031E-01
      3.251  0.2776E-01  0.3064E-01  0.2789E-01
      3.318  0.3219E-01  0.3319E-01  0.2814E-01
      3.384  0.4089E-01  0.4172E-01  0.3307E-01
      3.451  0.5251E-01  0.5175E-01  0.4108E-01
      3.517  0.6526E-01  0.5905E-01  0.4839E-01
      3.583  0.7624E-01  0.6346E-01  0.5284E-01
      3.650  0.8048E-01  0.6689E-01  0.5542E-01
      3.716  0.7418E-01  0.6894E-01  0.5781E-01
      3.783  0.5966E-01  0.6647E-01  0.5931E-01
      3.849  0.4495E-01  0.5793E-01  0.5758E-01
      3.915  0.3877E-01  0.4669E-01  0.5251E-01
      3.982  0.4702E-01  0.3859E-01  0.4763E-01
      4.048  0.7099E-01  0.3659E-01  0.4678E-01
      4.114  0.1045E+00  0.3926E-01  0.5073E-01
      4.181  0.1341E+00  0.4422E-01  0.5766E-01
      4.247  0.1466E+00  0.5094E-01  0.6557E-01
      4.314  0.1394E+00  0.5909E-01  0.7262E-01
      4.380  0.1213E+00  0.6614E-01  0.7615E-01
      4.446  0.1033E+00  0.6885E-01  0.7374E-01
      4.513  0.9296E-01  0.6704E-01  0.6611E-01
      4.579  0.9275E-01  0.6440E-01  0.5788E-01
      4.646  0.1008E+00  0.6550E-01  0.5417E-01
      4.712  0.1117E+00  0.7209E-01  0.5643E-01
      4.778  0.1198E+00  0.8217E-01  0.6182E-01
      4.845  0.1225E+00  0.9180E-01  0.6608E-01
      4.911  0.1194E+00  0.9751E-01  0.6684E-01
      4.977  0.1094E+00  0.9692E-01  0.6394E-01
      5.044  0.9081E-01  0.8797E-01  0.5723E-01
      5.110  0.6436E-01  0.6984E-01  0.4587E-01
      5.177  0.3609E-01  0.4582E-01  0.3070E-01
      5.243  0.1381E-01  0.2302E-01  0.1558E-01
      5.309  0.1497E-02  0.7693E-02  0.4864E-02
      5.376 -0.2411E-02  0.1071E-02 -0.7672E-05
      5.442 -0.2039E-02 -0.3679E-05 -0.7934E-03
      5.509 -0.7367E-03  0.5779E-03 -0.1513E-03
      5.575  0.4810E-04  0.7753E-03  0.3100E-03
      5.641  0.2114E-03  0.4339E-03  0.2949E-03
      5.708  0.1035E-03  0.4860E-04  0.9864E-04
      5.774 -0.3357E-05 -0.1157E-03 -0.3067E-04
      5.840 -0.3599E-04 -0.1093E-03 -0.5564E-04
      5.907 -0.2652E-04 -0.5720E-04 -0.3518E-04
      5.973 -0.1174E-04 -0.2097E-04 -0.1445E-04
      6.040 -0.3680E-05 -0.5766E-05 -0.4316E-05
      6.106 -0.8636E-06 -0.1223E-05 -0.9774E-06
      6.172 -0.1555E-06 -0.2032E-06 -0.1713E-06
      6.239 -0.2178E-07 -0.2666E-07 -0.2348E-07
      6.305 -0.2393E-08 -0.2776E-08 -0.2536E-08
      6.372 -0.2073E-09 -0.2301E-09 -0.2167E-09
      6.438 -0.1422E-10 -0.1521E-10 -0.1470E-10
      6.504 -0.7738E-12 -0.8033E-12 -0.7929E-12
      6.571 -0.3349E-13 -0.3391E-13 -0.3407E-13
      6.637 -0.1154E-14 -0.1145E-14 -0.1167E-14
      6.703 -0.3218E-16 -0.3141E-16 -0.3239E-16
      6.770 -0.5027E-18 -0.4542E-18 -0.4951E-18
      6.836  0.0000E+00  0.0000E+00  0.0000E+00
      6.903  0.0000E+00  0.0000E+00  0.0000E+00
      6.969  0.0000E+00  0.0000E+00  0.0000E+00
      7.035  0.0000E+00  0.0000E+00  0.0000E+00
      7.102  0.0000E+00  0.0000E+00  0.0000E+00
      7.168  0.0000E+00  0.0000E+00  0.0000E+00
      7.235  0.0000E+00  0.0000E+00  0.0000E+00
      7.301  0.0000E+00  0.0000E+00  0.0000E+00
      7.367  0.0000E+00  0.0000E+00  0.0000E+00
      7.434  0.0000E+00  0.0000E+00  0.0000E+00
      7.500  0.0000E+00  0.0000E+00  0.0000E+00
      7.50011371    -12.41560122  301     -1.61276510      1.00000000
    -12.416  0.0000E+00  0.0000E+00  0.0000E+00
    -12.349  0.0000E+00  0.0000E+00  0.0000E+00
    -12.283  0.0000E+00  0.0000E+00  0.0000E+00
    -12.216  0.0000E+00  0.0000E+00  0.0000E+00
    -12.150  0.0000E+00  0.0000E+00  0.0000E+00
    -12.084  0.0000E+00  0.0000E+00  0.0000E+00
    -12.017 -0.2385E-29 -0.3027E-30 -0.2215E-31
    -11.951 -0.4147E-27 -0.5264E-28 -0.3852E-29
    -11.885 -0.5799E-25 -0.7362E-26 -0.5387E-27
    -11.818 -0.6491E-23 -0.8239E-24 -0.6030E-25
    -11.752 -0.5813E-21 -0.7379E-22 -0.5401E-23
    -11.685 -0.4164E-19 -0.5287E-20 -0.3870E-21
    -11.619 -0.2386E-17 -0.3029E-18 -0.2218E-19
    -11.553 -0.1059E-15 -0.1345E-16 -0.9854E-18
    -11.486 -0.3862E-14 -0.4906E-15 -0.3597E-16
    -11.420 -0.1123E-12 -0.1428E-13 -0.1048E-14
    -11.353 -0.2607E-11 -0.3315E-12 -0.2437E-13
    -11.287 -0.4824E-10 -0.6139E-11 -0.4522E-12
    -11.221 -0.7109E-09 -0.9060E-10 -0.6697E-11
    -11.154 -0.8340E-08 -0.1065E-08 -0.7915E-10
    -11.088 -0.7785E-07 -0.9975E-08 -0.7470E-09
    -11.022 -0.5779E-06 -0.7440E-07 -0.5636E-08
    -10.955 -0.3409E-05 -0.4419E-06 -0.3403E-07
    -10.889 -0.1596E-04 -0.2090E-05 -0.1646E-06
    -10.822 -0.5905E-04 -0.7836E-05 -0.6365E-06
    -10.756 -0.1704E-03 -0.2303E-04 -0.1946E-05
    -10.690 -0.3691E-03 -0.5117E-04 -0.4552E-05
    -10.623 -0.5283E-03 -0.7657E-04 -0.7404E-05
    -10.557 -0.1803E-03 -0.3585E-04 -0.5210E-05
    -10.490  0.1470E-02  0.1829E-03  0.1205E-04
    -10.424  0.4901E-02  0.6515E-03  0.5140E-04
    -10.358  0.9288E-02  0.1264E-02  0.1051E-03
    -10.291  0.1273E-01  0.1775E-02  0.1569E-03
    -10.225  0.1439E-01  0.2111E-02  0.2122E-03
    -10.158  0.1584E-01  0.2519E-02  0.3021E-03
    -10.092  0.1856E-01  0.3152E-02  0.4269E-03
    -10.026  0.2084E-01  0.3638E-02  0.5159E-03
     -9.959  0.1941E-01  0.3424E-02  0.4891E-03
     -9.893  0.1389E-01  0.2503E-02  0.3570E-03
     -9.827  0.7680E-02  0.1503E-02  0.2220E-03
     -9.760  0.4467E-02  0.1073E-02  0.1853E-03
     -9.694  0.5136E-02  0.1368E-02  0.2705E-03
     -9.627  0.7915E-02  0.2080E-02  0.4296E-03
     -9.561  0.1049E-01  0.2811E-02  0.6097E-03
     -9.495  0.1189E-01  0.3383E-02  0.8004E-03
     -9.428  0.1250E-01  0.3772E-02  0.9988E-03
     -9.362  0.1280E-01  0.3848E-02  0.1151E-02
     -9.295  0.1272E-01  0.3448E-02  0.1194E-02
     -9.229  0.1238E-01  0.2710E-02  0.1154E-02
     -9.163  0.1251E-01  0.2086E-02  0.1117E-02
     -9.096  0.1405E-01  0.1951E-02  0.1138E-02
     -9.030  0.1799E-01  0.2459E-02  0.1252E-02
     -8.964  0.2474E-01  0.3621E-02  0.1546E-02
     -8.897  0.3216E-01  0.5196E-02  0.2051E-02
     -8.831  0.3601E-01  0.6585E-02  0.2601E-02
     -8.764  0.3459E-01  0.7168E-02  0.2900E-02
     -8.698  0.3094E-01  0.6728E-02  0.2745E-02
     -8.632  0.2887E-01  0.5544E-02  0.2192E-02
     -8.565  0.2921E-01  0.4253E-02  0.1558E-02
     -8.499  0.3141E-01  0.3586E-02  0.1229E-02
     -8.432  0.3549E-01  0.4022E-02  0.1436E-02
     -8.366  0.4106E-01  0.5672E-02  0.2274E-02
     -8.300  0.4642E-01  0.8348E-02  0.3783E-02
     -8.233  0.4947E-01  0.1140E-01  0.5750E-02
     -8.167  0.4882E-01  0.1359E-01  0.7482E-02
     -8.101  0.4476E-01  0.1373E-01  0.8180E-02
     -8.034  0.4014E-01  0.1194E-01  0.7751E-02
     -7.968  0.3893E-01  0.9797E-02  0.7179E-02
     -7.901  0.4317E-01  0.9169E-02  0.8061E-02
     -7.835  0.5180E-01  0.1077E-01  0.1155E-01
     -7.769  0.6133E-01  0.1369E-01  0.1715E-01
     -7.702  0.6625E-01  0.1613E-01  0.2259E-01
     -7.636  0.6256E-01  0.1702E-01  0.2601E-01
     -7.569  0.5467E-01  0.1717E-01  0.2851E-01
     -7.503  0.5518E-01  0.1847E-01  0.3320E-01
     -7.437  0.7303E-01  0.2176E-01  0.4123E-01
     -7.370  0.1021E+00  0.2586E-01  0.4987E-01
     -7.304  0.1245E+00  0.2884E-01  0.5558E-01
     -7.238  0.1260E+00  0.3010E-01  0.5874E-01
     -7.171  0.1087E+00  0.3100E-01  0.6413E-01
     -7.105  0.8859E-01  0.3308E-01  0.7593E-01
     -7.038  0.8212E-01  0.3601E-01  0.9270E-01
     -6.972  0.9294E-01  0.3786E-01  0.1089E+00
     -6.906  0.1114E+00  0.3740E-01  0.1207E+00
     -6.839  0.1243E+00  0.3532E-01  0.1287E+00
     -6.773  0.1248E+00  0.3312E-01  0.1346E+00
     -6.706  0.1154E+00  0.3157E-01  0.1379E+00
     -6.640  0.1038E+00  0.3052E-01  0.1368E+00
     -6.574  0.9670E-01  0.2970E-01  0.1328E+00
     -6.507  0.9567E-01  0.2928E-01  0.1304E+00