  64  64   1   0
  0.4516855E+02  0.1115311E-08  0.1117045E-08  0.2680282E-08  0.1000000E-15
  1.000000000000000E-004
  CAR 
 unknown system                          
      6.82478229    -11.18913016  301     -1.62136292      1.00000000
    -11.189  0.0000E+00  0.0000E+00
    -11.129  0.0000E+00  0.0000E+00
    -11.069  0.0000E+00  0.0000E+00
    -11.009  0.0000E+00  0.0000E+00
    -10.949  0.0000E+00  0.0000E+00
    -10.889  0.0000E+00  0.0000E+00
    -10.829 -0.1547E-30 -0.9289E-32
    -10.769 -0.1856E-28 -0.1124E-29
    -10.709 -0.1871E-26 -0.1135E-27
    -10.649 -0.1571E-24 -0.9545E-26
    -10.589 -0.1099E-22 -0.6695E-24
    -10.529 -0.6409E-21 -0.3915E-22
    -10.469 -0.3113E-19 -0.1909E-20
    -10.409 -0.1260E-17 -0.7756E-19
    -10.348 -0.4130E-16 -0.2558E-17
    -10.288 -0.1153E-14 -0.7177E-16
    -10.228 -0.2682E-13 -0.1682E-14
    -10.168 -0.5190E-12 -0.3285E-13
    -10.108 -0.8353E-11 -0.5344E-12
    -10.048 -0.1118E-09 -0.7245E-11
     -9.988 -0.1243E-08 -0.8188E-10
     -9.928 -0.1149E-07 -0.7716E-09
     -9.868 -0.8822E-07 -0.6069E-08
     -9.808 -0.5630E-06 -0.3987E-07
     -9.748 -0.2983E-05 -0.2190E-06
     -9.688 -0.1311E-04 -0.1006E-05
     -9.628 -0.4760E-04 -0.3864E-05
     -9.568 -0.1415E-03 -0.1236E-04
     -9.508 -0.3378E-03 -0.3265E-04
     -9.448 -0.6151E-03 -0.6958E-04
     -9.388 -0.7273E-03 -0.1133E-03
     -9.328 -0.5273E-04 -0.1164E-03
     -9.268  0.2236E-02  0.1785E-04
     -9.208  0.6458E-02  0.4056E-03
     -9.148  0.1166E-01  0.1106E-02
     -9.088  0.1598E-01  0.2065E-02
     -9.027  0.1843E-01  0.3171E-02
     -8.967  0.2001E-01  0.4373E-02
     -8.907  0.2233E-01  0.5714E-02
     -8.847  0.2496E-01  0.7212E-02
     -8.787  0.2539E-01  0.8737E-02
     -8.727  0.2207E-01  0.1006E-01
     -8.667  0.1696E-01  0.1108E-01
     -8.607  0.1450E-01  0.1195E-01
     -8.547  0.1775E-01  0.1302E-01
     -8.487  0.2562E-01  0.1455E-01
     -8.427  0.3381E-01  0.1658E-01
     -8.367  0.3814E-01  0.1887E-01
     -8.307  0.3698E-01  0.2110E-01
     -8.247  0.3208E-01  0.2302E-01
     -8.187  0.2874E-01  0.2475E-01
     -8.127  0.3470E-01  0.2683E-01
     -8.067  0.5651E-01  0.3022E-01
     -8.007  0.9608E-01  0.3599E-01
     -7.947  0.1515E+00  0.4509E-01
     -7.887  0.2204E+00  0.5832E-01
     -7.827  0.2995E+00  0.7631E-01
     -7.766  0.3816E+00  0.9922E-01
     -7.706  0.4536E+00  0.1265E+00
     -7.646  0.5023E+00  0.1566E+00
     -7.586  0.5222E+00  0.1880E+00
     -7.526  0.5209E+00  0.2192E+00
     -7.466  0.5141E+00  0.2501E+00
     -7.406  0.5156E+00  0.2811E+00
     -7.346  0.5298E+00  0.3129E+00
     -7.286  0.5535E+00  0.3461E+00
     -7.226  0.5832E+00  0.3811E+00
     -7.166  0.6175E+00  0.4182E+00
     -7.106  0.6537E+00  0.4575E+00
     -7.046  0.6858E+00  0.4987E+00
     -6.986  0.7073E+00  0.5411E+00
     -6.926  0.7165E+00  0.5841E+00
     -6.866  0.7166E+00  0.6272E+00
     -6.806  0.7128E+00  0.6700E+00
     -6.746  0.7083E+00  0.7125E+00
     -6.686  0.7036E+00  0.7548E+00
     -6.626  0.6966E+00  0.7966E+00
     -6.566  0.6857E+00  0.8378E+00
     -6.506  0.6728E+00  0.8782E+00
     -6.445  0.6635E+00  0.9180E+00
     -6.385  0.6636E+00  0.9578E+00
     -6.325  0.6755E+00  0.9984E+00
     -6.265  0.6983E+00  0.1040E+01
     -6.205  0.7282E+00  0.1084E+01
     -6.145  0.7589E+00  0.1130E+01
     -6.085  0.7838E+00  0.1177E+01
     -6.025  0.7990E+00  0.1225E+01
     -5.965  0.8077E+00  0.1273E+01
     -5.905  0.8177E+00  0.1322E+01
     -5.845  0.8357E+00  0.1372E+01
     -5.785  0.8628E+00  0.1424E+01
     -5.725  0.8945E+00  0.1478E+01
     -5.665  0.9229E+00  0.1533E+01
     -5.605  0.9400E+00  0.1590E+01
     -5.545  0.9400E+00  0.1646E+01
     -5.485  0.9234E+00  0.1702E+01
     -5.425  0.8979E+00  0.1756E+01
     -5.365  0.8746E+00  0.1808E+01
     -5.305  0.8615E+00  0.1860E+01
     -5.245  0.8586E+00  0.1911E+01
     -5.184  0.8583E+00  0.1963E+01
     -5.124  0.8496E+00  0.2014E+01
     -5.064  0.8239E+00  0.2063E+01
     -5.004  0.7780E+00  0.2110E+01
     -4.944  0.7141E+00  0.2153E+01
     -4.884  0.6373E+00  0.2191E+01
     -4.824  0.5532E+00  0.2225E+01
     -4.764  0.4672E+00  0.2253E+01
     -4.704  0.3861E+00  0.2276E+01
     -4.644  0.3201E+00  0.2295E+01
     -4.584  0.2802E+00  0.2312E+01
     -4.524  0.2724E+00  0.2328E+01
     -4.464  0.2932E+00  0.2346E+01
     -4.404  0.3310E+00  0.2366E+01
     -4.344  0.3728E+00  0.2388E+01
     -4.284  0.4112E+00  0.2413E+01
     -4.224  0.4463E+00  0.2440E+01
     -4.164  0.4841E+00  0.2469E+01
     -4.104  0.5328E+00  0.2501E+01
     -4.044  0.5984E+00  0.2537E+01
     -3.984  0.6778E+00  0.2577E+01
     -3.924  0.7566E+00  0.2623E+01
     -3.863  0.8169E+00  0.2672E+01
     -3.803  0.8531E+00  0.2723E+01
     -3.743  0.8805E+00  0.2776E+01
     -3.683  0.9250E+00  0.2831E+01
     -3.623  0.1003E+01  0.2892E+01
     -3.563  0.1106E+01  0.2958E+01
     -3.503  0.1204E+01  0.3030E+01
     -3.443  0.1255E+01  0.3106E+01
     -3.383  0.1221E+01  0.3179E+01
     -3.323  0.1084E+01  0.3244E+01
     -3.263  0.8612E+00  0.3296E+01
     -3.203  0.6054E+00  0.3332E+01
     -3.143  0.3819E+00  0.3355E+01
     -3.083  0.2311E+00  0.3369E+01
     -3.023  0.1509E+00  0.3378E+01
     -2.963  0.1137E+00  0.3385E+01
     -2.903  0.9612E-01  0.3391E+01
     -2.843  0.9103E-01  0.3396E+01
     -2.783  0.9781E-01  0.3402E+01
     -2.723  0.1101E+00  0.3408E+01
     -2.663  0.1171E+00  0.3416E+01
     -2.602  0.1126E+00  0.3422E+01
     -2.542  0.9826E-01  0.3428E+01
     -2.482  0.8047E-01  0.3433E+01
     -2.422  0.6713E-01  0.3437E+01
     -2.362  0.6597E-01  0.3441E+01
     -2.302  0.7965E-01  0.3446E+01
     -2.242  0.1006E+00  0.3452E+01
     -2.182  0.1138E+00  0.3459E+01
     -2.122  0.1083E+00  0.3465E+01
     -2.062  0.8613E-01  0.3470E+01
     -2.002  0.6168E-01  0.3474E+01
     -1.942  0.5256E-01  0.3477E+01
     -1.882  0.6875E-01  0.3481E+01
     -1.822  0.1059E+00  0.3488E+01
     -1.762  0.1468E+00  0.3497E+01
     -1.702  0.1712E+00  0.3507E+01
     -1.642  0.1681E+00  0.3517E+01
     -1.582  0.1418E+00  0.3525E+01
     -1.522  0.1058E+00  0.3532E+01
     -1.462  0.7318E-01  0.3536E+01
     -1.402  0.5185E-01  0.3539E+01
     -1.342  0.4420E-01  0.3542E+01
     -1.281  0.4860E-01  0.3545E+01
     -1.221  0.6066E-01  0.3548E+01
     -1.161  0.7534E-01  0.3553E+01
     -1.101  0.8934E-01  0.3558E+01
     -1.041  0.1024E+00  0.3565E+01
     -0.981  0.1166E+00  0.3572E+01
     -0.921  0.1322E+00  0.3579E+01
     -0.861  0.1453E+00  0.3588E+01
     -0.801  0.1495E+00  0.3597E+01
     -0.741  0.1426E+00  0.3606E+01
     -0.681  0.1296E+00  0.3613E+01
     -0.621  0.1190E+00  0.3621E+01
     -0.561  0.1163E+00  0.3628E+01
     -0.501  0.1196E+00  0.3635E+01
     -0.441  0.1197E+00  0.3642E+01
     -0.381  0.1068E+00  0.3648E+01
     -0.321  0.8163E-01  0.3653E+01
     -0.261  0.5721E-01  0.3657E+01
     -0.201  0.4808E-01  0.3660E+01
     -0.141  0.5588E-01  0.3663E+01
     -0.081  0.6894E-01  0.3667E+01
     -0.021  0.7607E-01  0.3672E+01
      0.040  0.7854E-01  0.3676E+01
      0.100  0.8762E-01  0.3682E+01
      0.160  0.1116E+00  0.3688E+01
      0.220  0.1457E+00  0.3697E+01
      0.280  0.1739E+00  0.3708E+01
      0.340  0.1808E+00  0.3718E+01
      0.400  0.1618E+00  0.3728E+01
      0.460  0.1260E+00  0.3736E+01
      0.520  0.9027E-01  0.3741E+01
      0.580  0.6935E-01  0.3745E+01
      0.640  0.6812E-01  0.3749E+01
      0.700  0.7947E-01  0.3754E+01
      0.760  0.8996E-01  0.3760E+01
      0.820  0.8943E-01  0.3765E+01
      0.880  0.7797E-01  0.3770E+01
      0.940  0.6568E-01  0.3774E+01
      1.000  0.6579E-01  0.3777E+01
      1.060  0.8502E-01  0.3783E+01
      1.120  0.1165E+00  0.3790E+01
      1.180  0.1410E+00  0.3798E+01
      1.240  0.1392E+00  0.3806E+01
      1.301  0.1085E+00  0.3813E+01
      1.361  0.6722E-01  0.3817E+01
      1.421  0.4090E-01  0.3819E+01
      1.481  0.4285E-01  0.3822E+01
      1.541  0.6687E-01  0.3826E+01
      1.601  0.9578E-01  0.3832E+01
      1.661  0.1147E+00  0.3839E+01
      1.721  0.1178E+00  0.3846E+01
      1.781  0.1061E+00  0.3852E+01
      1.841  0.8349E-01  0.3857E+01
      1.901  0.5582E-01  0.3860E+01
      1.961  0.3160E-01  0.3862E+01
      2.021  0.2049E-01  0.3864E+01
      2.081  0.2725E-01  0.3865E+01
      2.141  0.4684E-01  0.3868E+01
      2.201  0.6678E-01  0.3872E+01
      2.261  0.7644E-01  0.3877E+01
      2.321  0.7569E-01  0.3881E+01
      2.381  0.7473E-01  0.3886E+01
      2.441  0.8493E-01  0.3891E+01
      2.501  0.1087E+00  0.3897E+01
      2.561  0.1374E+00  0.3906E+01
      2.622  0.1598E+00  0.3915E+01
      2.682  0.1707E+00  0.3925E+01
      2.742  0.1734E+00  0.3936E+01
      2.802  0.1724E+00  0.3946E+01
      2.862  0.1668E+00  0.3956E+01
      2.922  0.1527E+00  0.3965E+01
      2.982  0.1311E+00  0.3973E+01
      3.042  0.1123E+00  0.3980E+01
      3.102  0.1096E+00  0.3987E+01
      3.162  0.1267E+00  0.3994E+01
      3.222  0.1536E+00  0.4003E+01
      3.282  0.1748E+00  0.4014E+01
      3.342  0.1820E+00  0.4025E+01
      3.402  0.1792E+00  0.4036E+01
      3.462  0.1777E+00  0.4046E+01
      3.522  0.1854E+00  0.4057E+01
      3.582  0.2013E+00  0.4069E+01
      3.642  0.2182E+00  0.4083E+01
      3.702  0.2293E+00  0.4096E+01
      3.762  0.2329E+00  0.4110E+01
      3.822  0.2302E+00  0.4124E+01
      3.883  0.2226E+00  0.4137E+01
      3.943  0.2118E+00  0.4150E+01
      4.003  0.1996E+00  0.4162E+01
      4.063  0.1864E+00  0.4173E+01
      4.123  0.1720E+00  0.4184E+01
      4.183  0.1595E+00  0.4193E+01
      4.243  0.1581E+00  0.4203E+01
      4.303  0.1767E+00  0.4213E+01
      4.363  0.2142E+00  0.4226E+01
      4.423  0.2566E+00  0.4242E+01
      4.483  0.2841E+00  0.4259E+01
      4.543  0.2826E+00  0.4276E+01
      4.603  0.2506E+00  0.4291E+01
      4.663  0.1982E+00  0.4303E+01
      4.723  0.1399E+00  0.4311E+01
      4.783  0.8783E-01  0.4316E+01
      4.843  0.4792E-01  0.4319E+01
      4.903  0.2083E-01  0.4320E+01
      4.963  0.4877E-02  0.4321E+01
      5.023 -0.2401E-02  0.4321E+01
      5.083 -0.4034E-02  0.4320E+01
      5.143 -0.3067E-02  0.4320E+01
      5.204 -0.1653E-02  0.4320E+01
      5.264 -0.6878E-03  0.4320E+01
      5.324 -0.2282E-03  0.4320E+01
      5.384 -0.6131E-04  0.4320E+01
      5.444 -0.1345E-04  0.4320E+01
      5.504 -0.2424E-05  0.4320E+01
      5.564 -0.3603E-06  0.4320E+01
      5.624 -0.4428E-07  0.4320E+01
      5.684 -0.4510E-08  0.4320E+01
      5.744 -0.3814E-09  0.4320E+01
      5.804 -0.2681E-10  0.4320E+01
      5.864 -0.1569E-11  0.4320E+01
      5.924 -0.7644E-13  0.4320E+01
      5.984 -0.3106E-14  0.4320E+01
      6.044 -0.1040E-15  0.4320E+01
      6.104 -0.2311E-17  0.4320E+01
      6.164  0.0000E+00  0.4320E+01
      6.224  0.0000E+00  0.4320E+01
      6.284  0.0000E+00  0.4320E+01
      6.344  0.0000E+00  0.4320E+01
      6.404  0.0000E+00  0.4320E+01
      6.465  0.0000E+00  0.4320E+01
      6.525  0.0000E+00  0.4320E+01
      6.585  0.0000E+00  0.4320E+01
      6.645  0.0000E+00  0.4320E+01
      6.705  0.0000E+00  0.4320E+01
      6.765  0.0000E+00  0.4320E+01
      6.825  0.0000E+00  0.4320E+01
      6.82478229    -11.18913016  301     -1.62136292      1.00000000
    -11.189  0.0000E+00  0.0000E+00  0.0000E+00
    -11.129  0.0000E+00  0.0000E+00  0.0000E+00
    -11.069  0.0000E+00  0.0000E+00  0.0000E+00
    -11.009  0.0000E+00  0.0000E+00  0.0000E+00
    -10.949  0.0000E+00  0.0000E+00  0.0000E+00
    -10.889  0.0000E+00  0.0000E+00  0.0000E+00
    -10.829 -0.1290E-30 -0.9689E-32 -0.3311E-32
    -10.769 -0.1548E-28 -0.1162E-29 -0.3973E-30
    -10.709 -0.1560E-26 -0.1172E-27 -0.4006E-28
    -10.649 -0.1310E-24 -0.9839E-26 -0.3364E-26
    -10.589 -0.9168E-23 -0.6886E-24 -0.2354E-24
    -10.529 -0.5346E-21 -0.4016E-22 -0.1373E-22
    -10.469 -0.2597E-19 -0.1951E-20 -0.6672E-21
    -10.409 -0.1051E-17 -0.7897E-19 -0.2701E-19
    -10.348 -0.3444E-16 -0.2590E-17 -0.8863E-18
    -10.288 -0.9612E-15 -0.7232E-16 -0.2476E-16
    -10.228 -0.2236E-13 -0.1684E-14 -0.5767E-15
    -10.168 -0.4327E-12 -0.3262E-13 -0.1118E-13
    -10.108 -0.6962E-11 -0.5256E-12 -0.1805E-12
    -10.048 -0.9312E-10 -0.7046E-11 -0.2423E-11
     -9.988 -0.1035E-08 -0.7856E-10 -0.2709E-10
     -9.928 -0.9560E-08 -0.7287E-09 -0.2521E-09
     -9.868 -0.7336E-07 -0.5624E-08 -0.1954E-08
     -9.808 -0.4675E-06 -0.3612E-07 -0.1263E-07
     -9.748 -0.2474E-05 -0.1931E-06 -0.6802E-07
     -9.688 -0.1085E-04 -0.8580E-06 -0.3053E-06
     -9.628 -0.3928E-04 -0.3159E-05 -0.1138E-05
     -9.568 -0.1164E-03 -0.9555E-05 -0.3493E-05
     -9.508 -0.2766E-03 -0.2329E-04 -0.8672E-05
     -9.448 -0.5005E-03 -0.4365E-04 -0.1669E-04
     -9.388 -0.5835E-03 -0.5457E-04 -0.2206E-04
     -9.328 -0.1453E-04 -0.1311E-04 -0.9437E-05
     -9.268  0.1883E-02  0.1401E-03  0.4262E-04
     -9.208  0.5363E-02  0.4308E-03  0.1437E-03
     -9.148  0.9619E-02  0.7973E-03  0.2742E-03
     -9.088  0.1306E-01  0.1120E-02  0.4030E-03
     -9.027  0.1475E-01  0.1347E-02  0.5383E-03
     -8.967  0.1542E-01  0.1570E-02  0.7396E-03
     -8.907  0.1652E-01  0.1896E-02  0.1034E-02
     -8.847  0.1813E-01  0.2245E-02  0.1315E-02
     -8.787  0.1862E-01  0.2368E-02  0.1387E-02
     -8.727  0.1667E-01  0.2129E-02  0.1172E-02
     -8.667  0.1328E-01  0.1749E-02  0.8806E-03
     -8.607  0.1140E-01  0.1700E-02  0.9579E-03
     -8.547  0.1330E-01  0.2289E-02  0.1822E-02
     -8.487  0.1864E-01  0.3332E-02  0.3635E-02
     -8.427  0.2503E-01  0.4257E-02  0.6216E-02
     -8.367  0.3021E-01  0.4541E-02  0.8922E-02
     -8.307  0.3329E-01  0.4090E-02  0.1065E-01
     -8.247  0.3456E-01  0.3327E-02  0.1068E-01
     -8.187  0.3560E-01  0.3027E-02  0.1059E-01
     -8.127  0.3927E-01  0.3889E-02  0.1538E-01
     -8.067  0.4753E-01  0.5941E-02  0.3176E-01
     -8.007  0.5860E-01  0.8318E-02  0.6481E-01
     -7.947  0.6756E-01  0.9930E-02  0.1163E+00
     -7.887  0.7086E-01  0.1051E-01  0.1853E+00
     -7.827  0.6951E-01  0.1087E-01  0.2688E+00
     -7.766  0.6763E-01  0.1206E-01  0.3600E+00
     -7.706  0.6846E-01  0.1439E-01  0.4499E+00
     -7.646  0.7201E-01  0.1717E-01  0.5342E+00
     -7.586  0.7609E-01  0.1935E-01  0.6216E+00
     -7.526  0.7951E-01  0.2041E-01  0.7331E+00
     -7.466  0.8421E-01  0.2065E-01  0.8861E+00
     -7.406  0.9374E-01  0.2078E-01  0.1079E+01
     -7.346  0.1090E+00  0.2127E-01  0.1291E+01
     -7.286  0.1256E+00  0.2208E-01  0.1501E+01
     -7.226  0.1354E+00  0.2296E-01  0.1703E+01
     -7.166  0.1322E+00  0.2377E-01  0.1902E+01
     -7.106  0.1162E+00  0.2455E-01  0.2093E+01
     -7.046  0.9322E-01  0.2550E-01  0.2263E+01
     -6.986  0.7100E-01  0.2685E-01  0.2413E+01
     -6.926  0.5432E-01  0.2868E-01  0.2565E+01
     -6.866  0.4381E-01  0.3073E-01  0.2733E+01
     -6.806  0.3755E-01  0.3245E-01  0.2894E+01
     -6.746  0.3350E-01  0.3323E-01  0.2997E+01
     -6.686  0.3039E-01  0.3272E-01  0.2999E+01
     -6.626  0.2757E-01  0.3104E-01  0.2893E+01
     -6.566  0.2474E-01  0.2864E-01  0.2715E+01
     -6.506  0.2203E-01  0.2626E-01  0.2519E+01
     -6.445  0.1991E-01  0.2466E-01  0.2355E+01
     -6.385  0.1879E-01  0.2428E-01  0.2256E+01
     -6.325  0.1872E-01  0.2503E-01  0.2243E+01
     -6.265  0.1927E-01  0.2653E-01  0.2320E+01
     -6.205  0.1975E-01  0.2861E-01  0.2475E+01
     -6.145  0.1967E-01  0.3137E-01  0.2677E+01
     -6.085  0.1978E-01  0.3480E-01  0.2894E+01
     -6.025  0.2294E-01  0.3840E-01  0.3131E+01
     -5.965  0.3351E-01  0.4130E-01  0.3426E+01
     -5.905  0.5437E-01  0.4277E-01  0.3788E+01
     -5.845  0.8301E-01  0.4253E-01  0.4135E+01
     -5.785  0.1107E+00  0.4096E-01  0.4332E+01
     -5.725  0.1272E+00  0.3902E-01  0.4325E+01
     -5.665  0.1274E+00  0.3765E-01  0.4225E+01
     -5.605  0.1149E+00  0.3708E-01  0.4240E+01
     -5.545  0.9823E-01  0.3670E-01  0.4488E+01
     -5.485  0.8499E-01  0.3581E-01  0.4872E+01
     -5.425  0.7785E-01  0.3443E-01  0.5125E+01
     -5.365  0.7480E-01  0.3334E-01  0.5010E+01
     -5.305  0.7188E-01  0.3335E-01  0.4490E+01
     -5.245  0.6664E-01  0.3449E-01  0.3733E+01
     -5.184  0.5981E-01  0.3584E-01  0.2957E+01
     -5.124  0.5422E-01  0.3618E-01  0.2297E+01
     -5.064  0.5198E-01  0.3497E-01  0.1787E+01
     -5.004  0.5243E-01  0.3270E-01  0.1423E+01
     -4.944  0.5256E-01  0.3036E-01  0.1193E+01
     -4.884  0.4965E-01  0.2858E-01  0.1084E+01
     -4.824  0.4356E-01  0.2726E-01  0.1066E+01
     -4.764  0.3692E-01  0.2592E-01  0.1092E+01
     -4.704  0.3313E-01  0.2424E-01  0.1113E+01
     -4.644  0.3420E-01  0.2221E-01  0.1089E+01
     -4.584  0.3988E-01  0.2000E-01  0.1010E+01
     -4.524  0.4825E-01  0.1791E-01  0.8952E+00
     -4.464  0.5672E-01  0.1637E-01  0.7800E+00
     -4.404  0.6287E-01  0.1582E-01  0.6910E+00
     -4.344  0.6512E-01  0.1652E-01  0.6351E+00
     -4.284  0.6341E-01  0.1833E-01  0.6028E+00
     -4.224  0.5929E-01  0.2091E-01  0.5818E+00
     -4.164  0.5466E-01  0.2401E-01  0.5685E+00
     -4.104  0.5017E-01  0.2758E-01  0.5702E+00
     -4.044  0.4501E-01  0.3167E-01  0.5965E+00
     -3.984  0.3834E-01  0.3600E-01  0.6465E+00
     -3.924  0.3074E-01  0.3968E-01  0.7014E+00
     -3.863  0.2390E-01  0.4155E-01  0.7330E+00
     -3.803  0.1953E-01  0.4107E-01  0.7238E+00
     -3.743  0.1854E-01  0.3899E-01  0.6826E+00
     -3.683  0.2100E-01  0.3674E-01  0.6383E+00
     -3.623  0.2620E-01  0.3531E-01  0.6169E+00
     -3.563  0.3254E-01  0.3454E-01  0.6219E+00
     -3.503  0.3786E-01  0.3354E-01  0.6318E+00
     -3.443  0.4044E-01  0.3152E-01  0.6136E+00
     -3.383  0.3987E-01  0.2824E-01  0.5437E+00
     -3.323  0.3689E-01  0.2420E-01  0.4245E+00
     -3.263  0.3277E-01  0.2051E-01  0.2852E+00
     -3.203  0.2910E-01  0.1839E-01  0.1632E+00
     -3.143  0.2766E-01  0.1836E-01  0.8307E-01
     -3.083  0.2920E-01  0.1966E-01  0.4608E-01
     -3.023  0.3232E-01  0.2076E-01  0.3680E-01
     -2.963  0.3452E-01  0.2078E-01  0.3800E-01
     -2.903  0.3467E-01  0.2036E-01  0.4223E-01
     -2.843  0.3389E-01  0.2102E-01  0.5141E-01
     -2.783  0.3425E-01  0.2359E-01  0.6704E-01
     -2.723  0.3714E-01  0.2726E-01  0.8307E-01
     -2.663  0.4251E-01  0.3024E-01  0.8978E-01
     -2.602  0.4821E-01  0.3115E-01  0.8274E-01
     -2.542  0.5020E-01  0.2980E-01  0.6605E-01
     -2.482  0.4564E-01  0.2721E-01  0.4831E-01
     -2.422  0.3716E-01  0.2570E-01  0.3807E-01
     -2.362  0.3236E-01  0.2827E-01  0.4119E-01
     -2.302  0.3706E-01  0.3622E-01  0.5746E-01
     -2.242  0.4868E-01  0.4683E-01  0.7807E-01
     -2.182  0.5776E-01  0.5419E-01  0.8956E-01
     -2.122  0.5659E-01  0.5340E-01  0.8366E-01
     -2.062  0.4628E-01  0.4444E-01  0.6396E-01
     -2.002  0.3583E-01  0.3270E-01  0.4356E-01
     -1.942  0.3484E-01  0.2598E-01  0.3661E-01
     -1.882  0.4615E-01  0.2984E-01  0.4979E-01
     -1.822  0.6397E-01  0.4394E-01  0.7780E-01
     -1.762  0.7796E-01  0.6175E-01  0.1056E+00
     -1.702  0.7998E-01  0.7438E-01  0.1176E+00
     -1.642  0.6873E-01  0.7604E-01  0.1084E+00
     -1.582  0.4986E-01  0.6714E-01  0.8461E-01
     -1.522  0.3146E-01  0.5284E-01  0.5745E-01
     -1.462  0.1890E-01  0.3920E-01  0.3483E-01
     -1.402  0.1303E-01  0.3040E-01  0.2024E-01
     -1.342  0.1224E-01  0.2790E-01  0.1567E-01
     -1.281  0.1525E-01  0.3075E-01  0.2259E-01
     -1.221  0.2149E-01  0.3704E-01  0.3998E-01
     -1.161  0.2997E-01  0.4536E-01  0.6255E-01
     -1.101  0.3895E-01  0.5498E-01  0.8221E-01
     -1.041  0.4756E-01  0.6551E-01  0.9250E-01
     -0.981  0.5646E-01  0.7702E-01  0.9253E-01
     -0.921  0.6560E-01  0.8954E-01  0.8617E-01
     -0.861  0.7178E-01  0.1009E+00  0.7756E-01
     -0.801  0.7040E-01  0.1067E+00  0.6849E-01
     -0.741  0.6043E-01  0.1034E+00  0.6013E-01
     -0.681  0.4653E-01  0.9254E-01  0.5507E-01
     -0.621  0.3552E-01  0.7949E-01  0.5625E-01
     -0.561  0.3128E-01  0.6988E-01  0.6383E-01
     -0.501  0.3264E-01  0.6561E-01  0.7327E-01
     -0.441  0.3487E-01  0.6316E-01  0.7666E-01
     -0.381  0.3324E-01  0.5669E-01  0.6819E-01
     -0.321  0.2634E-01  0.4496E-01  0.4995E-01
     -0.261  0.1700E-01  0.3467E-01  0.3158E-01
     -0.201  0.9688E-02  0.3455E-01  0.2226E-01
     -0.141  0.6785E-02  0.4620E-01  0.2289E-01
     -0.081  0.7430E-02  0.6252E-01  0.2709E-01
     -0.021  0.9789E-02  0.7543E-01  0.2942E-01
      0.040  0.1383E-01  0.8373E-01  0.3186E-01
      0.100  0.2168E-01  0.9298E-01  0.4159E-01
      0.160  0.3519E-01  0.1085E+00  0.6284E-01
      0.220  0.5270E-01  0.1282E+00  0.9052E-01
      0.280  0.6807E-01  0.1428E+00  0.1119E+00
      0.340  0.7380E-01  0.1422E+00  0.1153E+00
      0.400  0.6626E-01  0.1233E+00  0.9848E-01
      0.460  0.4862E-01  0.9315E-01  0.6987E-01
      0.520  0.2869E-01  0.6463E-01  0.4272E-01
      0.580  0.1377E-01  0.4927E-01  0.2721E-01
      0.640  0.6899E-02  0.5046E-01  0.2582E-01
      0.700  0.6805E-02  0.6141E-01  0.3352E-01
      0.760  0.1011E-01  0.6983E-01  0.4159E-01
      0.820  0.1354E-01  0.6711E-01  0.4320E-01
      0.880  0.1516E-01  0.5486E-01  0.3774E-01
      0.940  0.1499E-01  0.4392E-01  0.3115E-01
      1.000  0.1478E-01  0.4631E-01  0.3135E-01
      1.060  0.1671E-01  0.6597E-01  0.4179E-01
      1.120  0.2111E-01  0.9433E-01  0.5776E-01
      1.180  0.2526E-01  0.1141E+00  0.6860E-01
      1.240  0.2532E-01  0.1106E+00  0.6541E-01
      1.301  0.1996E-01  0.8396E-01  0.4858E-01
      1.361  0.1203E-01  0.5017E-01  0.2825E-01
      1.421  0.6424E-02  0.2933E-01  0.1679E-01
      1.481  0.6373E-02  0.3116E-01  0.2005E-01
      1.541  0.1159E-01  0.5063E-01  0.3474E-01
      1.601  0.1899E-01  0.7467E-01  0.5223E-01
      1.661  0.2470E-01  0.9155E-01  0.6440E-01
      1.721  0.2601E-01  0.9576E-01  0.6711E-01
      1.781  0.2254E-01  0.8737E-01  0.6039E-01
      1.841  0.1605E-01  0.6949E-01  0.4693E-01
      1.901  0.9277E-02  0.4703E-01  0.3090E-01
      1.961  0.4909E-02  0.2680E-01  0.1750E-01
      2.021  0.4743E-02  0.1604E-01  0.1167E-01
      2.081  0.8796E-02  0.1831E-01  0.1519E-01
      2.141  0.1483E-01  0.3005E-01  0.2453E-01
      2.201  0.1955E-01  0.4215E-01  0.3268E-01
      2.261  0.2112E-01  0.4644E-01  0.3432E-01
      2.321  0.2066E-01  0.4173E-01  0.3012E-01
      2.381  0.2091E-01  0.3413E-01  0.2603E-01
      2.441  0.2354E-01  0.3157E-01  0.2831E-01
      2.501  0.2791E-01  0.3745E-01  0.3855E-01
      2.561  0.3219E-01  0.4876E-01  0.5260E-01
      2.622  0.3506E-01  0.5936E-01  0.6396E-01
      2.682  0.3621E-01  0.6501E-01  0.6851E-01
      2.742  0.3581E-01  0.6560E-01  0.6669E-01
      2.802  0.3422E-01  0.6359E-01  0.6167E-01
      2.862  0.3197E-01  0.6074E-01  0.5592E-01
      2.922  0.2994E-01  0.5665E-01  0.4982E-01
      2.982  0.2942E-01  0.5048E-01  0.4325E-01
      3.042  0.3212E-01  0.4326E-01  0.3773E-01
      3.102  0.3955E-01  0.3774E-01  0.3618E-01
      3.162  0.5175E-01  0.3579E-01  0.4051E-01
      3.222  0.6640E-01  0.3690E-01  0.4984E-01
      3.282  0.7945E-01  0.3901E-01  0.6082E-01
      3.342  0.8693E-01  0.4054E-01  0.6944E-01
      3.402  0.8688E-01  0.4184E-01  0.7334E-01
      3.462  0.8061E-01  0.4533E-01  0.7298E-01
      3.522  0.7188E-01  0.5340E-01  0.7068E-01
      3.582  0.6451E-01  0.6517E-01  0.6813E-01
      3.642  0.6098E-01  0.7567E-01  0.6537E-01
      3.702  0.6302E-01  0.7961E-01  0.6214E-01
      3.762  0.7156E-01  0.7629E-01  0.5943E-01
      3.822  0.8480E-01  0.7000E-01  0.5891E-01
      3.883  0.9743E-01  0.6550E-01  0.6095E-01
      3.943  0.1036E+00  0.6388E-01  0.6388E-01
      4.003  0.1013E+00  0.6279E-01  0.6523E-01
      4.063  0.9323E-01  0.5997E-01  0.6384E-01
      4.123  0.8443E-01  0.5590E-01  0.6082E-01
      4.183  0.7920E-01  0.5361E-01  0.5891E-01
      4.243  0.8022E-01  0.5663E-01  0.6083E-01
      4.303  0.8867E-01  0.6656E-01  0.6801E-01
      4.363  0.1030E+00  0.8138E-01  0.7973E-01
      4.423  0.1175E+00  0.9540E-01  0.9223E-01
      4.483  0.1238E+00  0.1016E+00  0.9924E-01
      4.543  0.1151E+00  0.9584E-01  0.9520E-01
      4.603  0.9186E-01  0.7956E-01  0.7933E-01
      4.663  0.6150E-01  0.5871E-01  0.5671E-01
      4.723  0.3381E-01  0.3938E-01  0.3469E-01
      4.783  0.1474E-01  0.2447E-01  0.1819E-01
      4.843  0.4517E-02  0.1382E-01  0.8038E-02
      4.903  0.2170E-03  0.6373E-02  0.2595E-02
      4.963 -0.1126E-02  0.1623E-02  0.5174E-05
      5.023 -0.1242E-02 -0.7078E-03 -0.9342E-03
      5.083 -0.9227E-03 -0.1261E-02 -0.9710E-03
      5.143 -0.5374E-03 -0.9547E-03 -0.6542E-03
      5.204 -0.2522E-03 -0.5036E-03 -0.3327E-03
      5.264 -0.9605E-04 -0.2033E-03 -0.1335E-03
      5.324 -0.2983E-04 -0.6511E-04 -0.4303E-04
      5.384 -0.7581E-05 -0.1682E-04 -0.1128E-04
      5.444 -0.1582E-05 -0.3539E-05 -0.2418E-05
      5.504 -0.2718E-06 -0.6105E-06 -0.4265E-06
      5.564 -0.3854E-07 -0.8672E-07 -0.6207E-07
      5.624 -0.4519E-08 -0.1017E-07 -0.7476E-08
      5.684 -0.4389E-09 -0.9881E-09 -0.7469E-09
      5.744 -0.3535E-10 -0.7960E-10 -0.6199E-10
      5.804 -0.2365E-11 -0.5327E-11 -0.4281E-11
      5.864 -0.1315E-12 -0.2965E-12 -0.2462E-12
      5.924 -0.6081E-14 -0.1374E-13 -0.1180E-13
      5.984 -0.2339E-15 -0.5303E-15 -0.4728E-15
      6.044 -0.7617E-17 -0.1781E-16 -0.1550E-16
      6.104 -0.1219E-19 -0.1640E-18 -0.3459E-18
      6.164  0.0000E+00  0.0000E+00  0.0000E+00
      6.224  0.0000E+00  0.0000E+00  0.0000E+00
      6.284  0.0000E+00  0.0000E+00  0.0000E+00
      6.344  0.0000E+00  0.0000E+00  0.0000E+00
      6.404  0.0000E+00  0.0000E+00  0.0000E+00
      6.465  0.0000E+00  0.0000E+00  0.0000E+00
      6.525  0.0000E+00  0.0000E+00  0.0000E+00
      6.585  0.0000E+00  0.0000E+00  0.0000E+00
      6.645  0.0000E+00  0.0000E+00  0.0000E+00
      6.705  0.0000E+00  0.0000E+00  0.0000E+00
      6.765  0.0000E+00  0.0000E+00  0.0000E+00
      6.825  0.0000E+00  0.0000E+00  0.0000E+00
      6.82478229    -11.18913016  301     -1.62136292      1.00000000
    -11.189  0.0000E+00  0.0000E+00  0.0000E+00
    -11.129  0.0000E+00  0.0000E+00  0.0000E+00
    -11.069  0.0000E+00  0.0000E+00  0.0000E+00
    -11.009  0.0000E+00  0.0000E+00  0.0000E+00
    -10.949  0.0000E+00  0.0000E+00  0.0000E+00
    -10.889  0.0000E+00  0.0000E+00  0.0000E+00
    -10.829 -0.1210E-30 -0.9141E-32 -0.2943E-32
    -10.769 -0.1452E-28 -0.1097E-29 -0.3531E-30
    -10.709 -0.1464E-26 -0.1106E-27 -0.3561E-28
    -10.649 -0.1229E-24 -0.9283E-26 -0.2990E-26
    -10.589 -0.8599E-23 -0.6497E-24 -0.2093E-24
    -10.529 -0.5014E-21 -0.3789E-22 -0.1221E-22
    -10.469 -0.2436E-19 -0.1841E-20 -0.5933E-21
    -10.409 -0.9855E-18 -0.7451E-19 -0.2403E-19
    -10.348 -0.3230E-16 -0.2443E-17 -0.7884E-18
    -10.288 -0.9014E-15 -0.6823E-16 -0.2203E-16
    -10.228 -0.2097E-13 -0.1588E-14 -0.5135E-15
    -10.168 -0.4057E-12 -0.3077E-13 -0.9964E-14
    -10.108 -0.6527E-11 -0.4958E-12 -0.1609E-12
    -10.048 -0.8729E-10 -0.6645E-11 -0.2164E-11
     -9.988 -0.9700E-09 -0.7408E-10 -0.2423E-10
     -9.928 -0.8957E-08 -0.6870E-09 -0.2261E-09
     -9.868 -0.6870E-07 -0.5301E-08 -0.1758E-08
     -9.808 -0.4376E-06 -0.3403E-07 -0.1141E-07
     -9.748 -0.2313E-05 -0.1818E-06 -0.6181E-07
     -9.688 -0.1013E-04 -0.8074E-06 -0.2793E-06
     -9.628 -0.3665E-04 -0.2970E-05 -0.1049E-05
     -9.568 -0.1084E-03 -0.8975E-05 -0.3254E-05
     -9.508 -0.2570E-03 -0.2185E-04 -0.8171E-05
     -9.448 -0.4635E-03 -0.4087E-04 -0.1596E-04
     -9.388 -0.5359E-03 -0.5088E-04 -0.2167E-04
     -9.328  0.2694E-05 -0.1150E-04 -0.1097E-04
     -9.268  0.1783E-02  0.1330E-03  0.3648E-04
     -9.208  0.5039E-02  0.4068E-03  0.1302E-03
     -9.148  0.9005E-02  0.7513E-03  0.2534E-03
     -9.088  0.1215E-01  0.1051E-02  0.3815E-03
     -9.027  0.1347E-01  0.1254E-02  0.5307E-03
     -8.967  0.1361E-01  0.1441E-02  0.7627E-03
     -8.907  0.1406E-01  0.1721E-02  0.1093E-02
     -8.847  0.1528E-01  0.2033E-02  0.1396E-02
     -8.787  0.1602E-01  0.2150E-02  0.1467E-02
     -8.727  0.1477E-01  0.1930E-02  0.1249E-02
     -8.667  0.1186E-01  0.1549E-02  0.9873E-03
     -8.607  0.9973E-02  0.1453E-02  0.1113E-02
     -8.547  0.1222E-01  0.1997E-02  0.1945E-02
     -8.487  0.1936E-01  0.3076E-02  0.3518E-02
     -8.427  0.2868E-01  0.4124E-02  0.5632E-02
     -8.367  0.3595E-01  0.4531E-02  0.7833E-02
     -8.307  0.3856E-01  0.4126E-02  0.9292E-02
     -8.247  0.3708E-01  0.3348E-02  0.9284E-02
     -8.187  0.3491E-01  0.3037E-02  0.8658E-02
     -8.127  0.3614E-01  0.3903E-02  0.1104E-01
     -8.067  0.4233E-01  0.5920E-02  0.2197E-01
     -8.007  0.5071E-01  0.8200E-02  0.4628E-01
     -7.947  0.5657E-01  0.9724E-02  0.8634E-01
     -7.887  0.5793E-01  0.1030E-01  0.1424E+00
     -7.827  0.5732E-01  0.1072E-01  0.2128E+00
     -7.766  0.5886E-01  0.1189E-01  0.2931E+00
     -7.706  0.6439E-01  0.1405E-01  0.3747E+00
     -7.646  0.7229E-01  0.1665E-01  0.4488E+00
     -7.586  0.7942E-01  0.1890E-01  0.5140E+00
     -7.526  0.8396E-01  0.2031E-01  0.5816E+00
     -7.466  0.8666E-01  0.2100E-01  0.6678E+00
     -7.406  0.8943E-01  0.2149E-01  0.7793E+00
     -7.346  0.9303E-01  0.2217E-01  0.9045E+00
     -7.286  0.9610E-01  0.2295E-01  0.1023E+01
     -7.226  0.9621E-01  0.2339E-01  0.1131E+01
     -7.166  0.9177E-01  0.2321E-01  0.1249E+01
     -7.106  0.8341E-01  0.2253E-01  0.1420E+01
     -7.046  0.7366E-01  0.2180E-01  0.1683E+01
     -6.986  0.6514E-01  0.2157E-01  0.2042E+01
     -6.926  0.5866E-01  0.2229E-01  0.2458E+01
     -6.866  0.5337E-01  0.2406E-01  0.2856E+01
     -6.806  0.4823E-01  0.2632E-01  0.3150E+01
     -6.746  0.4296E-01  0.2803E-01  0.3276E+01
     -6.686  0.3776E-01  0.2828E-01  0.3224E+01
     -6.626  0.3269E-01  0.2688E-01  0.3043E+01
     -6.566  0.2775E-01  0.2453E-01  0.2813E+01
     -6.506  0.2320E-01  0.2222E-01  0.2605E+01
     -6.445  0.1958E-01  0.2066E-01  0.2475E+01
     -6.385  0.1747E-01  0.2003E-01  0.2459E+01
     -6.325  0.1702E-01  0.2012E-01  0.2578E+01
     -6.265  0.1778E-01  0.2065E-01  0.2840E+01
     -6.205  0.1895E-01  0.2152E-01  0.3239E+01
     -6.145  0.2003E-01  0.2279E-01  0.3730E+01
     -6.085  0.2121E-01  0.2452E-01  0.4204E+01
     -6.025  0.2322E-01  0.2650E-01  0.4525E+01
     -5.965  0.2717E-01  0.2832E-01  0.4628E+01
     -5.905  0.3470E-01  0.2971E-01  0.4579E+01
     -5.845  0.4798E-01  0.3070E-01  0.4513E+01