  64  64   1   0
  0.4430018E+02  0.1105773E-08  0.1105790E-08  0.2677261E-08  0.1000000E-15
  1.000000000000000E-004
  CAR 
 unknown system                          
      6.46145067    -12.39657421  301     -0.89921544      1.00000000
    -12.397  0.0000E+00  0.0000E+00
    -12.334  0.0000E+00  0.0000E+00
    -12.271  0.0000E+00  0.0000E+00
    -12.208  0.0000E+00  0.0000E+00
    -12.145  0.0000E+00  0.0000E+00
    -12.082  0.0000E+00  0.0000E+00
    -12.019 -0.5796E-30 -0.3643E-31
    -11.957 -0.8225E-28 -0.5207E-29
    -11.894 -0.9619E-26 -0.6099E-27
    -11.831 -0.9212E-24 -0.5852E-25
    -11.768 -0.7224E-22 -0.4599E-23
    -11.705 -0.4637E-20 -0.2961E-21
    -11.642 -0.2436E-18 -0.1561E-19
    -11.579 -0.9919E-17 -0.6391E-18
    -11.517 -0.3564E-15 -0.2304E-16
    -11.454 -0.1020E-13 -0.6643E-15
    -11.391 -0.2383E-12 -0.1564E-13
    -11.328 -0.4541E-11 -0.3011E-12
    -11.265 -0.7055E-10 -0.4736E-11
    -11.202 -0.8923E-09 -0.6083E-10
    -11.139 -0.9181E-08 -0.6380E-09
    -11.077 -0.7676E-07 -0.5463E-08
    -11.014 -0.5208E-06 -0.3820E-07
    -10.951 -0.2864E-05 -0.2183E-06
    -10.888 -0.1275E-04 -0.1020E-05
    -10.825 -0.4586E-04 -0.3903E-05
    -10.762 -0.1324E-03 -0.1223E-04
    -10.699 -0.3016E-03 -0.3119E-04
    -10.636 -0.5122E-03 -0.6338E-04
    -10.574 -0.5104E-03 -0.9547E-04
    -10.511  0.3081E-03 -0.7610E-04
    -10.448  0.2759E-02  0.9731E-04
    -10.385  0.7129E-02  0.5455E-03
    -10.322  0.1219E-01  0.1312E-02
    -10.259  0.1544E-01  0.2283E-02
    -10.196  0.1540E-01  0.3251E-02
    -10.134  0.1379E-01  0.4118E-02
    -10.071  0.1421E-01  0.5011E-02
    -10.008  0.1809E-01  0.6148E-02
     -9.945  0.2282E-01  0.7582E-02
     -9.882  0.2424E-01  0.9105E-02
     -9.819  0.2042E-01  0.1039E-01
     -9.756  0.1325E-01  0.1122E-01
     -9.694  0.7328E-02  0.1168E-01
     -9.631  0.7145E-02  0.1213E-01
     -9.568  0.1373E-01  0.1299E-01
     -9.505  0.2322E-01  0.1445E-01
     -9.442  0.2958E-01  0.1631E-01
     -9.379  0.2981E-01  0.1819E-01
     -9.316  0.2593E-01  0.1982E-01
     -9.254  0.2163E-01  0.2118E-01
     -9.191  0.1869E-01  0.2235E-01
     -9.128  0.1729E-01  0.2344E-01
     -9.065  0.1805E-01  0.2457E-01
     -9.002  0.2250E-01  0.2599E-01
     -8.939  0.3182E-01  0.2799E-01
     -8.876  0.4492E-01  0.3081E-01
     -8.814  0.5703E-01  0.3440E-01
     -8.751  0.6189E-01  0.3829E-01
     -8.688  0.5696E-01  0.4187E-01
     -8.625  0.4548E-01  0.4473E-01
     -8.562  0.3278E-01  0.4679E-01
     -8.499  0.2233E-01  0.4819E-01
     -8.436  0.1672E-01  0.4924E-01
     -8.374  0.1975E-01  0.5048E-01
     -8.311  0.3437E-01  0.5264E-01
     -8.248  0.5796E-01  0.5629E-01
     -8.185  0.8097E-01  0.6138E-01
     -8.122  0.9225E-01  0.6718E-01
     -8.059  0.8708E-01  0.7265E-01
     -7.996  0.7047E-01  0.7708E-01
     -7.934  0.5390E-01  0.8047E-01
     -7.871  0.5033E-01  0.8363E-01
     -7.808  0.6991E-01  0.8803E-01
     -7.745  0.1142E+00  0.9520E-01
     -7.682  0.1715E+00  0.1060E+00
     -7.619  0.2208E+00  0.1199E+00
     -7.556  0.2446E+00  0.1352E+00
     -7.493  0.2422E+00  0.1505E+00
     -7.431  0.2313E+00  0.1650E+00
     -7.368  0.2327E+00  0.1796E+00
     -7.305  0.2493E+00  0.1953E+00
     -7.242  0.2636E+00  0.2119E+00
     -7.179  0.2589E+00  0.2281E+00
     -7.116  0.2415E+00  0.2433E+00
     -7.053  0.2359E+00  0.2582E+00
     -6.991  0.2633E+00  0.2747E+00
     -6.928  0.3247E+00  0.2951E+00
     -6.865  0.4008E+00  0.3203E+00
     -6.802  0.4619E+00  0.3494E+00
     -6.739  0.4860E+00  0.3799E+00
     -6.676  0.4765E+00  0.4098E+00
     -6.613  0.4597E+00  0.4387E+00
     -6.551  0.4571E+00  0.4675E+00
     -6.488  0.4633E+00  0.4966E+00
     -6.425  0.4578E+00  0.5254E+00
     -6.362  0.4319E+00  0.5525E+00
     -6.299  0.3948E+00  0.5773E+00
     -6.236  0.3595E+00  0.5999E+00
     -6.173  0.3305E+00  0.6207E+00
     -6.111  0.3046E+00  0.6399E+00
     -6.048  0.2808E+00  0.6575E+00
     -5.985  0.2697E+00  0.6745E+00
     -5.922  0.2871E+00  0.6925E+00
     -5.859  0.3319E+00  0.7134E+00
     -5.796  0.3785E+00  0.7372E+00
     -5.733  0.4001E+00  0.7623E+00
     -5.671  0.3932E+00  0.7870E+00
     -5.608  0.3749E+00  0.8106E+00
     -5.545  0.3610E+00  0.8333E+00
     -5.482  0.3570E+00  0.8557E+00
     -5.419  0.3625E+00  0.8785E+00
     -5.356  0.3750E+00  0.9021E+00
     -5.293  0.3870E+00  0.9264E+00
     -5.231  0.3891E+00  0.9509E+00
     -5.168  0.3819E+00  0.9749E+00
     -5.105  0.3785E+00  0.9987E+00
     -5.042  0.3911E+00  0.1023E+01
     -4.979  0.4184E+00  0.1050E+01
     -4.916  0.4475E+00  0.1078E+01
     -4.853  0.4678E+00  0.1107E+01
     -4.791  0.4815E+00  0.1137E+01
     -4.728  0.4992E+00  0.1169E+01
     -4.665  0.5251E+00  0.1202E+01
     -4.602  0.5490E+00  0.1236E+01
     -4.539  0.5567E+00  0.1271E+01
     -4.476  0.5451E+00  0.1306E+01
     -4.413  0.5260E+00  0.1339E+01
     -4.350  0.5153E+00  0.1371E+01
     -4.288  0.5224E+00  0.1404E+01
     -4.225  0.5509E+00  0.1438E+01
     -4.162  0.6004E+00  0.1476E+01
     -4.099  0.6628E+00  0.1518E+01
     -4.036  0.7179E+00  0.1563E+01
     -3.973  0.7442E+00  0.1610E+01
     -3.910  0.7374E+00  0.1656E+01
     -3.848  0.7136E+00  0.1701E+01
     -3.785  0.6898E+00  0.1744E+01
     -3.722  0.6639E+00  0.1786E+01
     -3.659  0.6180E+00  0.1825E+01
     -3.596  0.5447E+00  0.1859E+01
     -3.533  0.4620E+00  0.1888E+01
     -3.470  0.3966E+00  0.1913E+01
     -3.408  0.3588E+00  0.1936E+01
     -3.345  0.3418E+00  0.1957E+01
     -3.282  0.3411E+00  0.1979E+01
     -3.219  0.3636E+00  0.2001E+01
     -3.156  0.4157E+00  0.2028E+01
     -3.093  0.4868E+00  0.2058E+01
     -3.030  0.5520E+00  0.2093E+01
     -2.968  0.5888E+00  0.2130E+01
     -2.905  0.5879E+00  0.2167E+01
     -2.842  0.5507E+00  0.2201E+01
     -2.779  0.4870E+00  0.2232E+01
     -2.716  0.4172E+00  0.2258E+01
     -2.653  0.3683E+00  0.2281E+01
     -2.590  0.3571E+00  0.2304E+01
     -2.528  0.3770E+00  0.2328E+01
     -2.465  0.4056E+00  0.2353E+01
     -2.402  0.4267E+00  0.2380E+01
     -2.339  0.4411E+00  0.2408E+01
     -2.276  0.4582E+00  0.2436E+01
     -2.213  0.4835E+00  0.2467E+01
     -2.150  0.5170E+00  0.2499E+01
     -2.088  0.5563E+00  0.2534E+01
     -2.025  0.5946E+00  0.2572E+01
     -1.962  0.6183E+00  0.2611E+01
     -1.899  0.6132E+00  0.2649E+01
     -1.836  0.5736E+00  0.2685E+01
     -1.773  0.5074E+00  0.2717E+01
     -1.710  0.4356E+00  0.2744E+01
     -1.648  0.3860E+00  0.2769E+01
     -1.585  0.3789E+00  0.2793E+01
     -1.522  0.4139E+00  0.2819E+01
     -1.459  0.4716E+00  0.2848E+01
     -1.396  0.5286E+00  0.2881E+01
     -1.333  0.5676E+00  0.2917E+01
     -1.270  0.5787E+00  0.2953E+01
     -1.207  0.5631E+00  0.2989E+01
     -1.145  0.5377E+00  0.3023E+01
     -1.082  0.5266E+00  0.3056E+01
     -1.019  0.5421E+00  0.3090E+01
     -0.956  0.5741E+00  0.3126E+01
     -0.893  0.6003E+00  0.3164E+01
     -0.830  0.6047E+00  0.3202E+01
     -0.767  0.5861E+00  0.3239E+01
     -0.705  0.5529E+00  0.3273E+01
     -0.642  0.5099E+00  0.3305E+01
     -0.579  0.4532E+00  0.3334E+01
     -0.516  0.3782E+00  0.3358E+01
     -0.453  0.2928E+00  0.3376E+01
     -0.390  0.2175E+00  0.3390E+01
     -0.327  0.1695E+00  0.3400E+01
     -0.265  0.1481E+00  0.3410E+01
     -0.202  0.1355E+00  0.3418E+01
     -0.139  0.1149E+00  0.3425E+01
     -0.076  0.8573E-01  0.3431E+01
     -0.013  0.6260E-01  0.3435E+01
      0.050  0.6037E-01  0.3438E+01
      0.113  0.8115E-01  0.3444E+01
      0.175  0.1151E+00  0.3451E+01
      0.238  0.1498E+00  0.3460E+01
      0.301  0.1761E+00  0.3471E+01
      0.364  0.1865E+00  0.3483E+01
      0.427  0.1770E+00  0.3494E+01
      0.490  0.1513E+00  0.3504E+01
      0.553  0.1198E+00  0.3511E+01
      0.615  0.9094E-01  0.3517E+01
      0.678  0.6633E-01  0.3521E+01
      0.741  0.4449E-01  0.3524E+01
      0.804  0.2583E-01  0.3525E+01
      0.867  0.1340E-01  0.3526E+01
      0.930  0.1213E-01  0.3527E+01
      0.993  0.2752E-01  0.3529E+01
      1.055  0.6111E-01  0.3533E+01
      1.118  0.1048E+00  0.3539E+01
      1.181  0.1424E+00  0.3548E+01
      1.244  0.1601E+00  0.3558E+01
      1.307  0.1578E+00  0.3568E+01
      1.370  0.1466E+00  0.3577E+01
      1.433  0.1365E+00  0.3586E+01
      1.496  0.1282E+00  0.3594E+01
      1.558  0.1183E+00  0.3601E+01
      1.621  0.1089E+00  0.3608E+01
      1.684  0.1073E+00  0.3615E+01
      1.747  0.1149E+00  0.3622E+01
      1.810  0.1229E+00  0.3630E+01
      1.873  0.1198E+00  0.3638E+01
      1.936  0.1021E+00  0.3644E+01
      1.998  0.7600E-01  0.3649E+01
      2.061  0.5057E-01  0.3652E+01
      2.124  0.3376E-01  0.3654E+01
      2.187  0.3148E-01  0.3656E+01
      2.250  0.4733E-01  0.3659E+01
      2.313  0.8036E-01  0.3664E+01
      2.376  0.1217E+00  0.3672E+01
      2.438  0.1546E+00  0.3681E+01
      2.501  0.1626E+00  0.3692E+01
      2.564  0.1429E+00  0.3701E+01
      2.627  0.1094E+00  0.3707E+01
      2.690  0.8041E-01  0.3713E+01
      2.753  0.6458E-01  0.3717E+01
      2.816  0.5839E-01  0.3720E+01
      2.878  0.5611E-01  0.3724E+01
      2.941  0.5837E-01  0.3727E+01
      3.004  0.6952E-01  0.3732E+01
      3.067  0.8927E-01  0.3737E+01
      3.130  0.1117E+00  0.3744E+01
      3.193  0.1320E+00  0.3753E+01
      3.256  0.1492E+00  0.3762E+01
      3.318  0.1600E+00  0.3772E+01
      3.381  0.1565E+00  0.3782E+01
      3.444  0.1341E+00  0.3790E+01
      3.507  0.9920E-01  0.3797E+01
      3.570  0.6623E-01  0.3801E+01
      3.633  0.4605E-01  0.3804E+01
      3.696  0.4019E-01  0.3806E+01
      3.758  0.4271E-01  0.3809E+01
      3.821  0.4492E-01  0.3812E+01
      3.884  0.4066E-01  0.3814E+01
      3.947  0.3080E-01  0.3816E+01
      4.010  0.2284E-01  0.3818E+01
      4.073  0.2406E-01  0.3819E+01
      4.136  0.3488E-01  0.3821E+01
      4.198  0.4886E-01  0.3825E+01
      4.261  0.5830E-01  0.3828E+01
      4.324  0.5913E-01  0.3832E+01
      4.387  0.5180E-01  0.3835E+01
      4.450  0.3932E-01  0.3838E+01
      4.513  0.2528E-01  0.3839E+01
      4.576  0.1280E-01  0.3840E+01
      4.639  0.4043E-02  0.3840E+01
      4.701 -0.4080E-03  0.3840E+01
      4.764 -0.1603E-02  0.3840E+01
      4.827 -0.1255E-02  0.3840E+01
      4.890 -0.6382E-03  0.3840E+01
      4.953 -0.2407E-03  0.3840E+01
      5.016 -0.7036E-04  0.3840E+01
      5.079 -0.1626E-04  0.3840E+01
      5.141 -0.3001E-05  0.3840E+01
      5.204 -0.4457E-06  0.3840E+01
      5.267 -0.5347E-07  0.3840E+01
      5.330 -0.5198E-08  0.3840E+01
      5.393 -0.4105E-09  0.3840E+01
      5.456 -0.2637E-10  0.3840E+01
      5.519 -0.1380E-11  0.3840E+01
      5.581 -0.5894E-13  0.3840E+01
      5.644 -0.2058E-14  0.3840E+01
      5.707 -0.6182E-16  0.3840E+01
      5.770  0.0000E+00  0.3840E+01
      5.833  0.0000E+00  0.3840E+01
      5.896  0.0000E+00  0.3840E+01
      5.959  0.0000E+00  0.3840E+01
      6.021  0.0000E+00  0.3840E+01
      6.084  0.0000E+00  0.3840E+01
      6.147  0.0000E+00  0.3840E+01
      6.210  0.0000E+00  0.3840E+01
      6.273  0.0000E+00  0.3840E+01
      6.336  0.0000E+00  0.3840E+01
      6.399  0.0000E+00  0.3840E+01
      6.461  0.0000E+00  0.3840E+01
      6.46145067    -12.39657421  301     -0.89921544      1.00000000
    -12.397  0.0000E+00  0.0000E+00  0.0000E+00
    -12.334  0.0000E+00  0.0000E+00  0.0000E+00
    -12.271  0.0000E+00  0.0000E+00  0.0000E+00
    -12.208  0.0000E+00  0.0000E+00  0.0000E+00
    -12.145  0.0000E+00  0.0000E+00  0.0000E+00
    -12.082  0.0000E+00  0.0000E+00  0.0000E+00
    -12.019 -0.6227E-30 -0.5618E-31 -0.9978E-33
    -11.957 -0.8838E-28 -0.7973E-29 -0.1416E-30
    -11.894 -0.1034E-25 -0.9323E-27 -0.1657E-28
    -11.831 -0.9898E-24 -0.8929E-25 -0.1587E-26
    -11.768 -0.7762E-22 -0.7002E-23 -0.1245E-24
    -11.705 -0.4983E-20 -0.4495E-21 -0.7993E-23
    -11.642 -0.2618E-18 -0.2362E-19 -0.4202E-21
    -11.579 -0.1066E-16 -0.9615E-18 -0.1713E-19
    -11.517 -0.3830E-15 -0.3455E-16 -0.6165E-18
    -11.454 -0.1096E-13 -0.9891E-15 -0.1769E-16
    -11.391 -0.2560E-12 -0.2311E-13 -0.4148E-15
    -11.328 -0.4879E-11 -0.4405E-12 -0.7955E-14
    -11.265 -0.7579E-10 -0.6846E-11 -0.1248E-12
    -11.202 -0.9586E-09 -0.8665E-10 -0.1602E-11
    -11.139 -0.9862E-08 -0.8925E-09 -0.1688E-10
    -11.077 -0.8243E-07 -0.7474E-08 -0.1462E-09
    -11.014 -0.5591E-06 -0.5085E-07 -0.1047E-08
    -10.951 -0.3074E-05 -0.2808E-06 -0.6229E-08
    -10.888 -0.1368E-04 -0.1258E-05 -0.3098E-07
    -10.825 -0.4913E-04 -0.4569E-05 -0.1291E-06
    -10.762 -0.1416E-03 -0.1338E-04 -0.4491E-06
    -10.699 -0.3219E-03 -0.3111E-04 -0.1280E-05
    -10.636 -0.5446E-03 -0.5452E-04 -0.2861E-05
    -10.574 -0.5380E-03 -0.5837E-04 -0.4510E-05
    -10.511  0.3413E-03  0.2115E-04 -0.3128E-05
    -10.448  0.2957E-02  0.2737E-03  0.6799E-05
    -10.385  0.7609E-02  0.7344E-03  0.2835E-04
    -10.322  0.1299E-01  0.1274E-02  0.5494E-04
    -10.259  0.1644E-01  0.1626E-02  0.7333E-04
    -10.196  0.1637E-01  0.1644E-02  0.8353E-04
    -10.134  0.1458E-01  0.1543E-02  0.1143E-03
    -10.071  0.1489E-01  0.1736E-02  0.2032E-03
    -10.008  0.1879E-01  0.2357E-02  0.3500E-03
     -9.945  0.2357E-01  0.3049E-02  0.4952E-03
     -9.882  0.2486E-01  0.3267E-02  0.5520E-03
     -9.819  0.2076E-01  0.2759E-02  0.4717E-03
     -9.756  0.1337E-01  0.1792E-02  0.3018E-03
     -9.694  0.7447E-02  0.1041E-02  0.1978E-03
     -9.631  0.7306E-02  0.1182E-02  0.3437E-03
     -9.568  0.1355E-01  0.2357E-02  0.7912E-03
     -9.505  0.2200E-01  0.3933E-02  0.1361E-02
     -9.442  0.2684E-01  0.4955E-02  0.1769E-02
     -9.379  0.2579E-01  0.4984E-02  0.1895E-02
     -9.316  0.2164E-01  0.4350E-02  0.1860E-02
     -9.254  0.1879E-01  0.3564E-02  0.1827E-02
     -9.191  0.1937E-01  0.2785E-02  0.1847E-02
     -9.128  0.2287E-01  0.2042E-02  0.1950E-02
     -9.065  0.2767E-01  0.1688E-02  0.2283E-02
     -9.002  0.3302E-01  0.2362E-02  0.3100E-02
     -8.939  0.4088E-01  0.4467E-02  0.4597E-02
     -8.876  0.5453E-01  0.7591E-02  0.6621E-02
     -8.814  0.7269E-01  0.1042E-01  0.8463E-02
     -8.751  0.8685E-01  0.1154E-01  0.9231E-02
     -8.688  0.8755E-01  0.1057E-01  0.8634E-02
     -8.625  0.7323E-01  0.8354E-02  0.7175E-02
     -8.562  0.5117E-01  0.6019E-02  0.5460E-02
     -8.499  0.3160E-01  0.4156E-02  0.3702E-02
     -8.436  0.2260E-01  0.3191E-02  0.2234E-02
     -8.374  0.2808E-01  0.3972E-02  0.2241E-02
     -8.311  0.4666E-01  0.7347E-02  0.5427E-02
     -8.248  0.7165E-01  0.1292E-01  0.1259E-01
     -8.185  0.9347E-01  0.1845E-01  0.2265E-01
     -8.122  0.1043E+00  0.2099E-01  0.3325E-01
     -8.059  0.1016E+00  0.1904E-01  0.4201E-01
     -7.996  0.8843E-01  0.1380E-01  0.4665E-01
     -7.934  0.7156E-01  0.8424E-02  0.4599E-01
     -7.871  0.6196E-01  0.6364E-02  0.4394E-01
     -7.808  0.7238E-01  0.9834E-02  0.5147E-01
     -7.745  0.1070E+00  0.1846E-01  0.7878E-01
     -7.682  0.1516E+00  0.2882E-01  0.1231E+00
     -7.619  0.1796E+00  0.3606E-01  0.1673E+00
     -7.556  0.1737E+00  0.3709E-01  0.1928E+00
     -7.493  0.1410E+00  0.3302E-01  0.1963E+00
     -7.431  0.1083E+00  0.2876E-01  0.1930E+00
     -7.368  0.1022E+00  0.2914E-01  0.2022E+00
     -7.305  0.1278E+00  0.3446E-01  0.2266E+00
     -7.242  0.1638E+00  0.4007E-01  0.2485E+00
     -7.179  0.1809E+00  0.4122E-01  0.2491E+00
     -7.116  0.1678E+00  0.3800E-01  0.2346E+00
     -7.053  0.1402E+00  0.3476E-01  0.2418E+00
     -6.991  0.1247E+00  0.3552E-01  0.3172E+00
     -6.928  0.1379E+00  0.4106E-01  0.4826E+00
     -6.865  0.1775E+00  0.4939E-01  0.7042E+00
     -6.802  0.2246E+00  0.5723E-01  0.8964E+00
     -6.739  0.2534E+00  0.6132E-01  0.9768E+00
     -6.676  0.2478E+00  0.6056E-01  0.9389E+00
     -6.613  0.2141E+00  0.5732E-01  0.8575E+00
     -6.551  0.1748E+00  0.5521E-01  0.8084E+00
     -6.488  0.1466E+00  0.5519E-01  0.7935E+00
     -6.425  0.1290E+00  0.5477E-01  0.7623E+00
     -6.362  0.1127E+00  0.5135E-01  0.6871E+00
     -6.299  0.9422E-01  0.4523E-01  0.5903E+00
     -6.236  0.7706E-01  0.3901E-01  0.5091E+00
     -6.173  0.6448E-01  0.3472E-01  0.4595E+00
     -6.111  0.5524E-01  0.3226E-01  0.4362E+00
     -6.048  0.4632E-01  0.3077E-01  0.4373E+00
     -5.985  0.3747E-01  0.3080E-01  0.4853E+00
     -5.922  0.3150E-01  0.3392E-01  0.6058E+00
     -5.859  0.3010E-01  0.3980E-01  0.7762E+00
     -5.796  0.3136E-01  0.4519E-01  0.9186E+00
     -5.733  0.3186E-01  0.4688E-01  0.9668E+00
     -5.671  0.3003E-01  0.4496E-01  0.9302E+00
     -5.608  0.2673E-01  0.4215E-01  0.8715E+00
     -5.545  0.2367E-01  0.4086E-01  0.8357E+00
     -5.482  0.2205E-01  0.4142E-01  0.8192E+00
     -5.419  0.2221E-01  0.4260E-01  0.7988E+00
     -5.356  0.2362E-01  0.4254E-01  0.7629E+00
     -5.293  0.2494E-01  0.3971E-01  0.7122E+00
     -5.231  0.2469E-01  0.3391E-01  0.6542E+00
     -5.168  0.2250E-01  0.2677E-01  0.6120E+00
     -5.105  0.1938E-01  0.2081E-01  0.6236E+00
     -5.042  0.1691E-01  0.1777E-01  0.7125E+00
     -4.979  0.1610E-01  0.1768E-01  0.8547E+00
     -4.916  0.1744E-01  0.1956E-01  0.9892E+00
     -4.853  0.2155E-01  0.2275E-01  0.1072E+01
     -4.791  0.2914E-01  0.2768E-01  0.1121E+01
     -4.728  0.3938E-01  0.3489E-01  0.1189E+01
     -4.665  0.4856E-01  0.4308E-01  0.1294E+01
     -4.602  0.5191E-01  0.4893E-01  0.1392E+01
     -4.539  0.4788E-01  0.4997E-01  0.1433E+01
     -4.476  0.4015E-01  0.4771E-01  0.1411E+01
     -4.413  0.3491E-01  0.4677E-01  0.1366E+01
     -4.350  0.3607E-01  0.5017E-01  0.1342E+01
     -4.288  0.4284E-01  0.5636E-01  0.1365E+01
     -4.225  0.5149E-01  0.6176E-01  0.1458E+01
     -4.162  0.5907E-01  0.6536E-01  0.1648E+01
     -4.099  0.6510E-01  0.6890E-01  0.1932E+01
     -4.036  0.6977E-01  0.7276E-01  0.2231E+01
     -3.973  0.7171E-01  0.7406E-01  0.2410E+01
     -3.910  0.6892E-01  0.7068E-01  0.2387E+01
     -3.848  0.6179E-01  0.6527E-01  0.2206E+01
     -3.785  0.5368E-01  0.6295E-01  0.1993E+01
     -3.722  0.4780E-01  0.6545E-01  0.1819E+01
     -3.659  0.4455E-01  0.6976E-01  0.1660E+01
     -3.596  0.4259E-01  0.7262E-01  0.1475E+01
     -3.533  0.4158E-01  0.7418E-01  0.1301E+01
     -3.470  0.4263E-01  0.7640E-01  0.1203E+01
     -3.408  0.4637E-01  0.8007E-01  0.1190E+01
     -3.345  0.5142E-01  0.8427E-01  0.1195E+01
     -3.282  0.5535E-01  0.8776E-01  0.1164E+01
     -3.219  0.5678E-01  0.8977E-01  0.1120E+01
     -3.156  0.5553E-01  0.8992E-01  0.1138E+01
     -3.093  0.5133E-01  0.8790E-01  0.1257E+01
     -3.030  0.4396E-01  0.8356E-01  0.1439E+01
     -2.968  0.3494E-01  0.7715E-01  0.1595E+01
     -2.905  0.2716E-01  0.6917E-01  0.1642E+01
     -2.842  0.2250E-01  0.6021E-01  0.1552E+01
     -2.779  0.2047E-01  0.5109E-01  0.1364E+01
     -2.716  0.1945E-01  0.4342E-01  0.1171E+01
     -2.653  0.1857E-01  0.3941E-01  0.1064E+01
     -2.590  0.1833E-01  0.4049E-01  0.1077E+01
     -2.528  0.1972E-01  0.4628E-01  0.1166E+01
     -2.465  0.2286E-01  0.5517E-01  0.1260E+01
     -2.402  0.2651E-01  0.6491E-01  0.1321E+01
     -2.339  0.2916E-01  0.7224E-01  0.1359E+01
     -2.276  0.3076E-01  0.7411E-01  0.1405E+01
     -2.213  0.3299E-01  0.7084E-01  0.1485E+01
     -2.150  0.3759E-01  0.6660E-01  0.1621E+01
     -2.088  0.4407E-01  0.6486E-01  0.1812E+01
     -2.025  0.4940E-01  0.6491E-01  0.2010E+01
     -1.962  0.5046E-01  0.6406E-01  0.2121E+01
     -1.899  0.4666E-01  0.6144E-01  0.2067E+01
     -1.836  0.3999E-01  0.5779E-01  0.1845E+01
     -1.773  0.3305E-01  0.5309E-01  0.1528E+01
     -1.710  0.2742E-01  0.4686E-01  0.1234E+01
     -1.648  0.2370E-01  0.4053E-01  0.1056E+01
     -1.585  0.2215E-01  0.3765E-01  0.1028E+01
     -1.522  0.2281E-01  0.4090E-01  0.1118E+01
     -1.459  0.2513E-01  0.4920E-01  0.1267E+01
     -1.396  0.2797E-01  0.5818E-01  0.1432E+01
     -1.333  0.3006E-01  0.6322E-01  0.1581E+01
     -1.270  0.3068E-01  0.6215E-01  0.1669E+01
     -1.207  0.3010E-01  0.5613E-01  0.1665E+01
     -1.145  0.2954E-01  0.4865E-01  0.1594E+01
     -1.082  0.3006E-01  0.4309E-01  0.1529E+01
     -1.019  0.3135E-01  0.4044E-01  0.1524E+01
     -0.956  0.3202E-01  0.3933E-01  0.1565E+01
     -0.893  0.3136E-01  0.3806E-01  0.1591E+01
     -0.830  0.3058E-01  0.3648E-01  0.1558E+01
     -0.767  0.3185E-01  0.3596E-01  0.1473E+01
     -0.705  0.3568E-01  0.3763E-01  0.1357E+01
     -0.642  0.3937E-01  0.4034E-01  0.1214E+01
     -0.579  0.3865E-01  0.4070E-01  0.1028E+01
     -0.516  0.3201E-01  0.3611E-01  0.8003E+00
     -0.453  0.2344E-01  0.2796E-01  0.5724E+00
     -0.390  0.1994E-01  0.2113E-01  0.4010E+00
     -0.327  0.2502E-01  0.1969E-01  0.3138E+00
     -0.265  0.3474E-01  0.2318E-01  0.2922E+00
     -0.202  0.4071E-01  0.2724E-01  0.2884E+00
     -0.139  0.3752E-01  0.2779E-01  0.2610E+00
     -0.076  0.2697E-01  0.2493E-01  0.2052E+00
     -0.013  0.1585E-01  0.2277E-01  0.1529E+00
      0.050  0.1072E-01  0.2535E-01  0.1400E+00
      0.113  0.1524E-01  0.3303E-01  0.1720E+00
      0.175  0.3022E-01  0.4349E-01  0.2242E+00
      0.238  0.5279E-01  0.5518E-01  0.2695E+00
      0.301  0.7499E-01  0.6738E-01  0.2970E+00
      0.364  0.8611E-01  0.7703E-01  0.3065E+00
      0.427  0.8013E-01  0.7919E-01  0.2982E+00
      0.490  0.6078E-01  0.7237E-01  0.2733E+00
      0.553  0.3798E-01  0.6071E-01  0.2363E+00
      0.615  0.1990E-01  0.4923E-01  0.1912E+00
      0.678  0.8940E-02  0.3898E-01  0.1403E+00
      0.741  0.3517E-02  0.2831E-01  0.8980E-01
      0.804  0.1310E-02  0.1692E-01  0.5029E-01
      0.867  0.1157E-02  0.7510E-02  0.3050E-01
      0.930  0.3538E-02  0.5129E-02  0.3327E-01
      0.993  0.9822E-02  0.1528E-01  0.5736E-01
      1.055  0.2037E-01  0.3940E-01  0.9876E-01
      1.118  0.3307E-01  0.7021E-01  0.1483E+00
      1.181  0.4432E-01  0.9379E-01  0.1908E+00
      1.244  0.5195E-01  0.1003E+00  0.2118E+00
      1.307  0.5661E-01  0.9296E-01  0.2101E+00
      1.370  0.5950E-01  0.8426E-01  0.1979E+00
      1.433  0.5957E-01  0.8346E-01  0.1868E+00
      1.496  0.5476E-01  0.8868E-01  0.1776E+00
      1.558  0.4641E-01  0.9125E-01  0.1678E+00
      1.621  0.4014E-01  0.8655E-01  0.1634E+00
      1.684  0.4030E-01  0.7900E-01  0.1721E+00
      1.747  0.4438E-01  0.7639E-01  0.1869E+00
      1.810  0.4516E-01  0.8085E-01  0.1884E+00
      1.873  0.3852E-01  0.8693E-01  0.1645E+00
      1.936  0.2715E-01  0.8691E-01  0.1224E+00
      1.998  0.1651E-01  0.7667E-01  0.7931E-01
      2.061  0.9173E-02  0.5860E-01  0.4701E-01
      2.124  0.4372E-02  0.4098E-01  0.2926E-01
      2.187  0.1890E-02  0.3265E-01  0.2764E-01
      2.250  0.4445E-02  0.3689E-01  0.4513E-01
      2.313  0.1532E-01  0.5068E-01  0.8221E-01
      2.376  0.3332E-01  0.6877E-01  0.1295E+00
      2.438  0.5069E-01  0.8552E-01  0.1664E+00
      2.501  0.5785E-01  0.9460E-01  0.1731E+00
      2.564  0.5190E-01  0.9176E-01  0.1476E+00
      2.627  0.4007E-01  0.7926E-01  0.1085E+00
      2.690  0.3319E-01  0.6482E-01  0.7838E-01
      2.753  0.3533E-01  0.5479E-01  0.6631E-01
      2.816  0.4077E-01  0.5007E-01  0.6598E-01
      2.878  0.4149E-01  0.4967E-01  0.6873E-01
      2.941  0.3598E-01  0.5549E-01  0.7410E-01
      3.004  0.2962E-01  0.6984E-01  0.8659E-01
      3.067  0.2797E-01  0.8929E-01  0.1059E+00
      3.130  0.3209E-01  0.1060E+00  0.1251E+00
      3.193  0.3966E-01  0.1158E+00  0.1372E+00
      3.256  0.4783E-01  0.1206E+00  0.1405E+00
      3.318  0.5428E-01  0.1207E+00  0.1358E+00
      3.381  0.5693E-01  0.1112E+00  0.1227E+00
      3.444  0.5454E-01  0.8780E-01  0.1006E+00
      3.507  0.4748E-01  0.5603E-01  0.7297E-01
      3.570  0.3730E-01  0.2901E-01  0.4773E-01
      3.633  0.2578E-01  0.1714E-01  0.3220E-01
      3.696  0.1503E-01  0.2132E-01  0.2866E-01
      3.758  0.7159E-02  0.3406E-01  0.3339E-01
      3.821  0.2949E-02  0.4460E-01  0.3870E-01
      3.884  0.1369E-02  0.4517E-01  0.3750E-01
      3.947  0.9197E-03  0.3618E-01  0.2879E-01
      4.010  0.1123E-02  0.2592E-01  0.1865E-01
      4.073  0.2502E-02  0.2303E-01  0.1471E-01
      4.136  0.5439E-02  0.2876E-01  0.1947E-01
      4.198  0.9221E-02  0.3664E-01  0.2867E-01
      4.261  0.1212E-01  0.3886E-01  0.3508E-01
      4.324  0.1253E-01  0.3264E-01  0.3374E-01
      4.387  0.1025E-01  0.2128E-01  0.2513E-01
      4.450  0.6575E-02  0.1035E-01  0.1398E-01
      4.513  0.3183E-02  0.3301E-02  0.5145E-02
      4.576  0.9856E-03  0.1813E-03  0.4753E-03
      4.639 -0.3041E-04 -0.6500E-03 -0.9780E-03
      4.701 -0.3055E-03 -0.6251E-03 -0.9380E-03
      4.764 -0.2617E-03 -0.4136E-03 -0.5529E-03
      4.827 -0.1487E-03 -0.2226E-03 -0.2535E-03
      4.890 -0.6459E-04 -0.9814E-04 -0.9568E-04
      4.953 -0.2222E-04 -0.3502E-04 -0.3008E-04
      5.016 -0.6134E-05 -0.1004E-04 -0.7852E-05
      5.079 -0.1366E-05 -0.2308E-05 -0.1690E-05
      5.141 -0.2459E-06 -0.4265E-06 -0.2983E-06
      5.204 -0.3588E-07 -0.6349E-07 -0.4303E-07
      5.267 -0.4252E-08 -0.7637E-08 -0.5066E-08
      5.330 -0.4096E-09 -0.7441E-09 -0.4864E-09
      5.393 -0.3212E-10 -0.5885E-10 -0.3809E-10
      5.456 -0.2053E-11 -0.3785E-11 -0.2433E-11
      5.519 -0.1070E-12 -0.1982E-12 -0.1268E-12
      5.581 -0.4551E-14 -0.8463E-14 -0.5397E-14
      5.644 -0.1586E-15 -0.2952E-15 -0.1884E-15
      5.707 -0.4603E-17 -0.8764E-17 -0.5619E-17
      5.770  0.0000E+00  0.0000E+00  0.0000E+00
      5.833  0.0000E+00  0.0000E+00  0.0000E+00
      5.896  0.0000E+00  0.0000E+00  0.0000E+00
      5.959  0.0000E+00  0.0000E+00  0.0000E+00
      6.021  0.0000E+00  0.0000E+00  0.0000E+00
      6.084  0.0000E+00  0.0000E+00  0.0000E+00
      6.147  0.0000E+00  0.0000E+00  0.0000E+00
      6.210  0.0000E+00  0.0000E+00  0.0000E+00
      6.273  0.0000E+00  0.0000E+00  0.0000E+00
      6.336  0.0000E+00  0.0000E+00  0.0000E+00
      6.399  0.0000E+00  0.0000E+00  0.0000E+00
      6.461  0.0000E+00  0.0000E+00  0.0000E+00
      6.46145067    -12.39657421  301     -0.89921544      1.00000000
    -12.397  0.0000E+00  0.0000E+00  0.0000E+00
    -12.334  0.0000E+00  0.0000E+00  0.0000E+00
    -12.271  0.0000E+00  0.0000E+00  0.0000E+00
    -12.208  0.0000E+00  0.0000E+00  0.0000E+00
    -12.145  0.0000E+00  0.0000E+00  0.0000E+00
    -12.082  0.0000E+00  0.0000E+00  0.0000E+00
    -12.019 -0.6004E-30 -0.5360E-31 -0.1084E-32
    -11.957 -0.8521E-28 -0.7608E-29 -0.1538E-30
    -11.894 -0.9964E-26 -0.8896E-27 -0.1799E-28
    -11.831 -0.9543E-24 -0.8520E-25 -0.1724E-26
    -11.768 -0.7483E-22 -0.6681E-23 -0.1352E-24
    -11.705 -0.4804E-20 -0.4289E-21 -0.8682E-23
    -11.642 -0.2524E-18 -0.2253E-19 -0.4564E-21
    -11.579 -0.1027E-16 -0.9175E-18 -0.1860E-19
    -11.517 -0.3692E-15 -0.3297E-16 -0.6694E-18
    -11.454 -0.1057E-13 -0.9437E-15 -0.1921E-16
    -11.391 -0.2468E-12 -0.2205E-13 -0.4502E-15
    -11.328 -0.4704E-11 -0.4203E-12 -0.8630E-14
    -11.265 -0.7306E-10 -0.6532E-11 -0.1353E-12
    -11.202 -0.9240E-09 -0.8268E-10 -0.1735E-11
    -11.139 -0.9505E-08 -0.8516E-09 -0.1825E-10
    -11.077 -0.7944E-07 -0.7131E-08 -0.1577E-09
    -11.014 -0.5387E-06 -0.4851E-07 -0.1125E-08
    -10.951 -0.2960E-05 -0.2679E-06 -0.6661E-08
    -10.888 -0.1316E-04 -0.1200E-05 -0.3292E-07
    -10.825 -0.4725E-04 -0.4355E-05 -0.1362E-06
    -10.762 -0.1360E-03 -0.1275E-04 -0.4700E-06
    -10.699 -0.3085E-03 -0.2962E-04 -0.1329E-05
    -10.636 -0.5203E-03 -0.5184E-04 -0.2948E-05
    -10.574 -0.5097E-03 -0.5535E-04 -0.4610E-05
    -10.511  0.3389E-03  0.2060E-04 -0.3124E-05
    -10.448  0.2850E-02  0.2613E-03  0.7128E-05
    -10.385  0.7312E-02  0.7004E-03  0.2920E-04
    -10.322  0.1248E-01  0.1215E-02  0.5620E-04
    -10.259  0.1580E-01  0.1551E-02  0.7469E-04
    -10.196  0.1567E-01  0.1565E-02  0.8559E-04
    -10.134  0.1367E-01  0.1453E-02  0.1203E-03
    -10.071  0.1332E-01  0.1601E-02  0.2184E-03
    -10.008  0.1629E-01  0.2149E-02  0.3759E-03
     -9.945  0.2055E-01  0.2792E-02  0.5230E-03
     -9.882  0.2246E-01  0.3039E-02  0.5650E-03
     -9.819  0.1989E-01  0.2629E-02  0.4601E-03
     -9.756  0.1377E-01  0.1752E-02  0.2753E-03
     -9.694  0.7805E-02  0.9978E-03  0.1771E-03
     -9.631  0.6613E-02  0.1044E-02  0.3338E-03
     -9.568  0.1237E-01  0.2148E-02  0.7655E-03
     -9.505  0.2227E-01  0.3801E-02  0.1278E-02
     -9.442  0.3009E-01  0.5035E-02  0.1613E-02
     -9.379  0.3149E-01  0.5242E-02  0.1692E-02
     -9.316  0.2761E-01  0.4602E-02  0.1660E-02
     -9.254  0.2309E-01  0.3661E-02  0.1666E-02
     -9.191  0.2159E-01  0.2744E-02  0.1729E-02
     -9.128  0.2397E-01  0.1999E-02  0.1845E-02
     -9.065  0.2915E-01  0.1775E-02  0.2143E-02
     -9.002  0.3595E-01  0.2631E-02  0.2866E-02
     -8.939  0.4463E-01  0.4870E-02  0.4234E-02
     -8.876  0.5606E-01  0.7989E-02  0.6138E-02
     -8.814  0.6807E-01  0.1062E-01  0.7918E-02
     -8.751  0.7463E-01  0.1137E-01  0.8706E-02
     -8.688  0.7101E-01  0.1001E-01  0.8216E-02
     -8.625  0.5859E-01  0.7633E-02  0.6951E-02
     -8.562  0.4306E-01  0.5465E-02  0.5490E-02
     -8.499  0.3002E-01  0.4006E-02  0.3976E-02
     -8.436  0.2430E-01  0.3425E-02  0.2658E-02
     -8.374  0.3015E-01  0.4351E-02  0.2654E-02
     -8.311  0.4842E-01  0.7545E-02  0.5623E-02
     -8.248  0.7342E-01  0.1263E-01  0.1239E-01
     -8.185  0.9501E-01  0.1754E-01  0.2198E-01
     -8.122  0.1051E+00  0.1965E-01  0.3227E-01
     -8.059  0.1019E+00  0.1779E-01  0.4099E-01
     -7.996  0.8901E-01  0.1318E-01  0.4578E-01
     -7.934  0.7346E-01  0.8555E-02  0.4509E-01
     -7.871  0.6544E-01  0.6862E-02  0.4224E-01
     -7.808  0.7601E-01  0.1009E-01  0.4750E-01
     -7.745  0.1074E+00  0.1803E-01  0.7111E-01
     -7.682  0.1458E+00  0.2772E-01  0.1116E+00
     -7.619  0.1695E+00  0.3469E-01  0.1534E+00
     -7.556  0.1654E+00  0.3592E-01  0.1783E+00
     -7.493  0.1392E+00  0.3214E-01  0.1815E+00
     -7.431  0.1124E+00  0.2775E-01  0.1768E+00
     -7.368  0.1074E+00  0.2755E-01  0.1851E+00
     -7.305  0.1303E+00  0.3247E-01  0.2124E+00
     -7.242  0.1636E+00  0.3840E-01  0.2417E+00
     -7.179  0.1800E+00  0.4045E-01  0.2502E+00
     -7.116  0.1678E+00  0.3803E-01  0.2394E+00
     -7.053  0.1403E+00  0.3503E-01  0.2447E+00
     -6.991  0.1240E+00  0.3562E-01  0.3141E+00
     -6.928  0.1377E+00  0.4097E-01  0.4698E+00
     -6.865  0.1809E+00  0.4941E-01  0.6790E+00
     -6.802  0.2329E+00  0.5766E-01  0.8594E+00