  64  64   1   0
  0.4284991E+02  0.1088473E-08  0.1089109E-08  0.2668039E-08  0.1000000E-15
  1.000000000000000E-004
  CAR 
 unknown system                          
      7.28049596    -11.51675684  301     -1.66825256      1.00000000
    -11.517  0.0000E+00  0.0000E+00
    -11.454  0.0000E+00  0.0000E+00
    -11.391  0.0000E+00  0.0000E+00
    -11.329  0.0000E+00  0.0000E+00
    -11.266  0.0000E+00  0.0000E+00
    -11.203  0.0000E+00  0.0000E+00
    -11.141 -0.5272E-30 -0.3303E-31
    -11.078 -0.7394E-28 -0.4666E-29
    -11.015 -0.8562E-26 -0.5411E-27
    -10.953 -0.8126E-24 -0.5146E-25
    -10.890 -0.6324E-22 -0.4014E-23
    -10.828 -0.4035E-20 -0.2569E-21
    -10.765 -0.2110E-18 -0.1348E-19
    -10.702 -0.9044E-17 -0.5801E-18
    -10.640 -0.3075E-15 -0.1985E-16
    -10.577 -0.8809E-14 -0.5718E-15
    -10.514 -0.2065E-12 -0.1351E-13
    -10.452 -0.3958E-11 -0.2615E-12
    -10.389 -0.6205E-10 -0.4149E-11
    -10.326 -0.7949E-09 -0.5396E-10
    -10.264 -0.8322E-08 -0.5754E-09
    -10.201 -0.7119E-07 -0.5036E-08
    -10.138 -0.4974E-06 -0.3620E-07
    -10.076 -0.2837E-05 -0.2140E-06
    -10.013 -0.1320E-04 -0.1041E-05
     -9.950 -0.4988E-04 -0.4166E-05
     -9.888 -0.1517E-03 -0.1367E-04
     -9.825 -0.3622E-03 -0.3637E-04
     -9.762 -0.6370E-03 -0.7628E-04
     -9.700 -0.6450E-03 -0.1167E-03
     -9.637  0.3762E-03 -0.9312E-04
     -9.574  0.3302E-02  0.1138E-03
     -9.512  0.8146E-02  0.6242E-03
     -9.449  0.1333E-01  0.1459E-02
     -9.386  0.1671E-01  0.2507E-02
     -9.324  0.1800E-01  0.3635E-02
     -9.261  0.1931E-01  0.4844E-02
     -9.198  0.2229E-01  0.6241E-02
     -9.136  0.2528E-01  0.7825E-02
     -9.073  0.2474E-01  0.9375E-02
     -9.010  0.1980E-01  0.1062E-01
     -8.948  0.1427E-01  0.1151E-01
     -8.885  0.1359E-01  0.1236E-01
     -8.822  0.1940E-01  0.1358E-01
     -8.760  0.2767E-01  0.1531E-01
     -8.697  0.3261E-01  0.1735E-01
     -8.635  0.3201E-01  0.1936E-01
     -8.572  0.2818E-01  0.2113E-01
     -8.509  0.2504E-01  0.2270E-01
     -8.447  0.2602E-01  0.2433E-01
     -8.384  0.3352E-01  0.2643E-01
     -8.321  0.4743E-01  0.2940E-01
     -8.259  0.6323E-01  0.3336E-01
     -8.196  0.7446E-01  0.3802E-01
     -8.133  0.7971E-01  0.4302E-01
     -8.071  0.8671E-01  0.4845E-01
     -8.008  0.1080E+00  0.5522E-01
     -7.945  0.1517E+00  0.6472E-01
     -7.883  0.2159E+00  0.7825E-01
     -7.820  0.2883E+00  0.9632E-01
     -7.757  0.3536E+00  0.1185E+00
     -7.695  0.4007E+00  0.1436E+00
     -7.632  0.4275E+00  0.1704E+00
     -7.569  0.4392E+00  0.1979E+00
     -7.507  0.4444E+00  0.2257E+00
     -7.444  0.4512E+00  0.2540E+00
     -7.381  0.4643E+00  0.2831E+00
     -7.319  0.4836E+00  0.3134E+00
     -7.256  0.5061E+00  0.3451E+00
     -7.193  0.5272E+00  0.3781E+00
     -7.131  0.5444E+00  0.4123E+00
     -7.068  0.5575E+00  0.4472E+00
     -7.005  0.5671E+00  0.4827E+00
     -6.943  0.5738E+00  0.5187E+00
     -6.880  0.5785E+00  0.5549E+00
     -6.817  0.5832E+00  0.5915E+00
     -6.755  0.5899E+00  0.6284E+00
     -6.692  0.5974E+00  0.6659E+00
     -6.629  0.6030E+00  0.7036E+00
     -6.567  0.6052E+00  0.7416E+00
     -6.504  0.6066E+00  0.7796E+00
     -6.441  0.6113E+00  0.8179E+00
     -6.379  0.6211E+00  0.8568E+00
     -6.316  0.6347E+00  0.8966E+00
     -6.254  0.6516E+00  0.9374E+00
     -6.191  0.6726E+00  0.9795E+00
     -6.128  0.6973E+00  0.1023E+01
     -6.066  0.7224E+00  0.1068E+01
     -6.003  0.7421E+00  0.1115E+01
     -5.940  0.7503E+00  0.1162E+01
     -5.878  0.7432E+00  0.1209E+01
     -5.815  0.7225E+00  0.1254E+01
     -5.752  0.6953E+00  0.1297E+01
     -5.690  0.6710E+00  0.1339E+01
     -5.627  0.6545E+00  0.1380E+01
     -5.564  0.6413E+00  0.1421E+01
     -5.502  0.6233E+00  0.1460E+01
     -5.439  0.5981E+00  0.1497E+01
     -5.376  0.5720E+00  0.1533E+01
     -5.314  0.5528E+00  0.1568E+01
     -5.251  0.5407E+00  0.1602E+01
     -5.188  0.5268E+00  0.1635E+01
     -5.126  0.5004E+00  0.1666E+01
     -5.063  0.4569E+00  0.1695E+01
     -5.000  0.4016E+00  0.1720E+01
     -4.938  0.3486E+00  0.1742E+01
     -4.875  0.3155E+00  0.1761E+01
     -4.812  0.3139E+00  0.1781E+01
     -4.750  0.3436E+00  0.1802E+01
     -4.687  0.3946E+00  0.1827E+01
     -4.624  0.4566E+00  0.1856E+01
     -4.562  0.5252E+00  0.1889E+01
     -4.499  0.6001E+00  0.1926E+01
     -4.436  0.6784E+00  0.1969E+01
     -4.374  0.7529E+00  0.2016E+01
     -4.311  0.8165E+00  0.2067E+01
     -4.248  0.8669E+00  0.2121E+01
     -4.186  0.9053E+00  0.2178E+01
     -4.123  0.9343E+00  0.2237E+01
     -4.061  0.9582E+00  0.2297E+01
     -3.998  0.9831E+00  0.2358E+01
     -3.935  0.1014E+01  0.2422E+01
     -3.873  0.1054E+01  0.2488E+01
     -3.810  0.1104E+01  0.2557E+01
     -3.747  0.1170E+01  0.2630E+01
     -3.685  0.1254E+01  0.2709E+01
     -3.622  0.1353E+01  0.2794E+01
     -3.559  0.1447E+01  0.2884E+01
     -3.497  0.1505E+01  0.2979E+01
     -3.434  0.1496E+01  0.3073E+01
     -3.371  0.1396E+01  0.3160E+01
     -3.309  0.1202E+01  0.3235E+01
     -3.246  0.9354E+00  0.3294E+01
     -3.183  0.6469E+00  0.3334E+01
     -3.121  0.3976E+00  0.3359E+01
     -3.058  0.2274E+00  0.3374E+01
     -2.995  0.1354E+00  0.3382E+01
     -2.933  0.9398E-01  0.3388E+01
     -2.870  0.7839E-01  0.3393E+01
     -2.807  0.8075E-01  0.3398E+01
     -2.745  0.9906E-01  0.3404E+01
     -2.682  0.1226E+00  0.3412E+01
     -2.619  0.1341E+00  0.3420E+01
     -2.557  0.1240E+00  0.3428E+01
     -2.494  0.9867E-01  0.3434E+01
     -2.431  0.7540E-01  0.3439E+01
     -2.369  0.6973E-01  0.3443E+01
     -2.306  0.8403E-01  0.3449E+01
     -2.243  0.1052E+00  0.3455E+01
     -2.181  0.1140E+00  0.3462E+01
     -2.118  0.1011E+00  0.3469E+01
     -2.055  0.7522E-01  0.3473E+01
     -1.993  0.5740E-01  0.3477E+01
     -1.930  0.6512E-01  0.3481E+01
     -1.868  0.9924E-01  0.3487E+01
     -1.805  0.1433E+00  0.3496E+01
     -1.742  0.1741E+00  0.3507E+01
     -1.680  0.1758E+00  0.3518E+01
     -1.617  0.1495E+00  0.3528E+01
     -1.554  0.1100E+00  0.3534E+01
     -1.492  0.7558E-01  0.3539E+01
     -1.429  0.5603E-01  0.3543E+01
     -1.366  0.5050E-01  0.3546E+01
     -1.304  0.5277E-01  0.3549E+01
     -1.241  0.5870E-01  0.3553E+01
     -1.178  0.6870E-01  0.3557E+01
     -1.116  0.8477E-01  0.3562E+01
     -1.053  0.1063E+00  0.3569E+01
     -0.990  0.1289E+00  0.3577E+01
     -0.928  0.1464E+00  0.3586E+01
     -0.865  0.1537E+00  0.3596E+01
     -0.802  0.1490E+00  0.3605E+01
     -0.740  0.1352E+00  0.3614E+01
     -0.677  0.1196E+00  0.3621E+01
     -0.614  0.1100E+00  0.3628E+01
     -0.552  0.1090E+00  0.3635E+01
     -0.489  0.1102E+00  0.3642E+01
     -0.426  0.1040E+00  0.3648E+01
     -0.364  0.8844E-01  0.3654E+01
     -0.301  0.7122E-01  0.3658E+01
     -0.238  0.6117E-01  0.3662E+01
     -0.176  0.5944E-01  0.3666E+01
     -0.113  0.6176E-01  0.3670E+01
     -0.050  0.6633E-01  0.3674E+01
      0.012  0.7611E-01  0.3679E+01
      0.075  0.9425E-01  0.3685E+01
      0.138  0.1194E+00  0.3692E+01
      0.200  0.1451E+00  0.3701E+01
      0.263  0.1627E+00  0.3711E+01
      0.326  0.1645E+00  0.3722E+01
      0.388  0.1488E+00  0.3731E+01
      0.451  0.1220E+00  0.3739E+01
      0.513  0.9658E-01  0.3745E+01
      0.576  0.8291E-01  0.3750E+01
      0.639  0.8106E-01  0.3755E+01
      0.701  0.8170E-01  0.3760E+01
      0.764  0.7581E-01  0.3765E+01
      0.827  0.6431E-01  0.3769E+01
      0.889  0.5774E-01  0.3773E+01
      0.952  0.6645E-01  0.3777E+01
      1.015  0.9048E-01  0.3782E+01
      1.077  0.1179E+00  0.3790E+01
      1.140  0.1324E+00  0.3798E+01
      1.203  0.1244E+00  0.3806E+01
      1.265  0.9826E-01  0.3812E+01
      1.328  0.6959E-01  0.3816E+01
      1.391  0.5463E-01  0.3820E+01
      1.453  0.5923E-01  0.3824E+01
      1.516  0.7637E-01  0.3828E+01
      1.579  0.9352E-01  0.3834E+01
      1.641  0.1017E+00  0.3841E+01
      1.704  0.9881E-01  0.3847E+01
      1.767  0.8686E-01  0.3852E+01
      1.829  0.6945E-01  0.3857E+01
      1.892  0.5124E-01  0.3860E+01
      1.955  0.3808E-01  0.3862E+01
      2.017  0.3523E-01  0.3864E+01
      2.080  0.4379E-01  0.3867E+01
      2.143  0.5886E-01  0.3871E+01
      2.205  0.7243E-01  0.3875E+01
      2.268  0.7909E-01  0.3880E+01
      2.331  0.8015E-01  0.3885E+01
      2.393  0.8281E-01  0.3890E+01
      2.456  0.9412E-01  0.3896E+01
      2.519  0.1140E+00  0.3903E+01
      2.581  0.1345E+00  0.3912E+01
      2.644  0.1473E+00  0.3921E+01
      2.706  0.1517E+00  0.3931E+01
      2.769  0.1527E+00  0.3940E+01
      2.832  0.1533E+00  0.3950E+01
      2.894  0.1500E+00  0.3959E+01
      2.957  0.1385E+00  0.3968E+01
      3.020  0.1224E+00  0.3976E+01
      3.082  0.1130E+00  0.3983E+01
      3.145  0.1191E+00  0.3990E+01
      3.208  0.1368E+00  0.3999E+01
      3.270  0.1537E+00  0.4008E+01
      3.333  0.1620E+00  0.4018E+01
      3.396  0.1648E+00  0.4029E+01
      3.458  0.1700E+00  0.4039E+01
      3.521  0.1817E+00  0.4051E+01
      3.584  0.1980E+00  0.4063E+01
      3.646  0.2137E+00  0.4077E+01
      3.709  0.2229E+00  0.4091E+01
      3.772  0.2221E+00  0.4105E+01
      3.834  0.2129E+00  0.4118E+01
      3.897  0.2018E+00  0.4130E+01
      3.960  0.1955E+00  0.4143E+01
      4.022  0.1955E+00  0.4155E+01
      4.085  0.1946E+00  0.4167E+01
      4.148  0.1838E+00  0.4179E+01
      4.210  0.1640E+00  0.4189E+01
      4.273  0.1495E+00  0.4198E+01
      4.336  0.1575E+00  0.4208E+01
      4.398  0.1922E+00  0.4220E+01
      4.461  0.2394E+00  0.4235E+01
      4.524  0.2754E+00  0.4253E+01
      4.586  0.2825E+00  0.4270E+01
      4.649  0.2570E+00  0.4286E+01
      4.712  0.2078E+00  0.4299E+01
      4.774  0.1496E+00  0.4309E+01
      4.837  0.9565E-01  0.4315E+01
      4.900  0.5338E-01  0.4318E+01
      4.962  0.2432E-01  0.4320E+01
      5.025  0.6913E-02  0.4320E+01
      5.087 -0.1188E-02  0.4320E+01
      5.150 -0.2812E-02  0.4320E+01
      5.213 -0.1189E-02  0.4320E+01
      5.275  0.8863E-03  0.4320E+01
      5.338  0.1886E-02  0.4320E+01
      5.401  0.1663E-02  0.4320E+01
      5.463  0.8764E-03  0.4320E+01
      5.526  0.2044E-03  0.4320E+01
      5.589 -0.9835E-04  0.4320E+01
      5.651 -0.1335E-03  0.4320E+01
      5.714 -0.7928E-04  0.4320E+01
      5.777 -0.3212E-04  0.4320E+01
      5.839 -0.9756E-05  0.4320E+01
      5.902 -0.2304E-05  0.4320E+01
      5.965 -0.4308E-06  0.4320E+01
      6.027 -0.6446E-07  0.4320E+01
      6.090 -0.7772E-08  0.4320E+01
      6.153 -0.7583E-09  0.4320E+01
      6.215 -0.6006E-10  0.4320E+01
      6.278 -0.3870E-11  0.4320E+01
      6.341 -0.2033E-12  0.4320E+01
      6.403 -0.8715E-14  0.4320E+01
      6.466 -0.3057E-15  0.4320E+01
      6.529 -0.8859E-17  0.4320E+01
      6.591  0.0000E+00  0.4320E+01
      6.654  0.0000E+00  0.4320E+01
      6.717  0.0000E+00  0.4320E+01
      6.779  0.0000E+00  0.4320E+01
      6.842  0.0000E+00  0.4320E+01
      6.905  0.0000E+00  0.4320E+01
      6.967  0.0000E+00  0.4320E+01
      7.030  0.0000E+00  0.4320E+01
      7.093  0.0000E+00  0.4320E+01
      7.155  0.0000E+00  0.4320E+01
      7.218  0.0000E+00  0.4320E+01
      7.280  0.0000E+00  0.4320E+01
      7.28049596    -11.51675684  301     -1.66825256      1.00000000
    -11.517  0.0000E+00  0.0000E+00  0.0000E+00
    -11.454  0.0000E+00  0.0000E+00  0.0000E+00
    -11.391  0.0000E+00  0.0000E+00  0.0000E+00
    -11.329  0.0000E+00  0.0000E+00  0.0000E+00
    -11.266  0.0000E+00  0.0000E+00  0.0000E+00
    -11.203  0.0000E+00  0.0000E+00  0.0000E+00
    -11.141 -0.5137E-30 -0.4636E-31 -0.4783E-32
    -11.078 -0.7204E-28 -0.6501E-29 -0.6707E-30
    -11.015 -0.8341E-26 -0.7529E-27 -0.7775E-28
    -10.953 -0.7917E-24 -0.7146E-25 -0.7384E-26
    -10.890 -0.6162E-22 -0.5562E-23 -0.5751E-24
    -10.828 -0.3931E-20 -0.3549E-21 -0.3673E-22
    -10.765 -0.2056E-18 -0.1856E-19 -0.1924E-20
    -10.702 -0.8810E-17 -0.7957E-18 -0.8261E-19
    -10.640 -0.2996E-15 -0.2707E-16 -0.2819E-17
    -10.577 -0.8581E-14 -0.7757E-15 -0.8108E-16
    -10.514 -0.2011E-12 -0.1819E-13 -0.1913E-14
    -10.452 -0.3855E-11 -0.3490E-12 -0.3701E-13
    -10.389 -0.6042E-10 -0.5478E-11 -0.5876E-12
    -10.326 -0.7739E-09 -0.7031E-10 -0.7668E-11
    -10.264 -0.8100E-08 -0.7379E-09 -0.8235E-10
    -10.201 -0.6925E-07 -0.6334E-08 -0.7295E-09
    -10.138 -0.4835E-06 -0.4447E-07 -0.5341E-08
    -10.076 -0.2756E-05 -0.2554E-06 -0.3239E-07
    -10.013 -0.1281E-04 -0.1199E-05 -0.1627E-06
     -9.950 -0.4832E-04 -0.4584E-05 -0.6743E-06
     -9.888 -0.1466E-03 -0.1414E-04 -0.2284E-05
     -9.825 -0.3493E-03 -0.3442E-04 -0.6187E-05
     -9.762 -0.6119E-03 -0.6218E-04 -0.1280E-04
     -9.700 -0.6138E-03 -0.6706E-04 -0.1797E-04
     -9.637  0.3804E-03  0.2399E-04 -0.8876E-05
     -9.574  0.3211E-02  0.2975E-03  0.3154E-04
     -9.512  0.7886E-02  0.7591E-03  0.1068E-03
     -9.449  0.1287E-01  0.1263E-02  0.1981E-03
     -9.386  0.1608E-01  0.1618E-02  0.2990E-03
     -9.324  0.1715E-01  0.1826E-02  0.4681E-03
     -9.261  0.1809E-01  0.2118E-02  0.7969E-03
     -9.198  0.2057E-01  0.2629E-02  0.1264E-02
     -9.136  0.2318E-01  0.3101E-02  0.1642E-02
     -9.073  0.2274E-01  0.3090E-02  0.1660E-02
     -9.010  0.1833E-01  0.2514E-02  0.1358E-02
     -8.948  0.1323E-01  0.1920E-02  0.1254E-02
     -8.885  0.1223E-01  0.2064E-02  0.1992E-02
     -8.822  0.1680E-01  0.3151E-02  0.3673E-02
     -8.760  0.2348E-01  0.4551E-02  0.5628E-02
     -8.697  0.2751E-01  0.5358E-02  0.7034E-02
     -8.635  0.2757E-01  0.5167E-02  0.7666E-02
     -8.572  0.2616E-01  0.4248E-02  0.7989E-02
     -8.509  0.2627E-01  0.3245E-02  0.8886E-02
     -8.447  0.2908E-01  0.2941E-02  0.1159E-01
     -8.384  0.3479E-01  0.3999E-02  0.1715E-01
     -8.321  0.4335E-01  0.6374E-02  0.2456E-01
     -8.259  0.5326E-01  0.8932E-02  0.2998E-01
     -8.196  0.6150E-01  0.1017E-01  0.3137E-01
     -8.133  0.6634E-01  0.9635E-02  0.3851E-01
     -8.071  0.6971E-01  0.8468E-02  0.7966E-01
     -8.008  0.7506E-01  0.8485E-02  0.1934E+00
     -7.945  0.8332E-01  0.1087E-01  0.4053E+00
     -7.883  0.9207E-01  0.1568E-01  0.7018E+00
     -7.820  0.9795E-01  0.2202E-01  0.1022E+01
     -7.757  0.9911E-01  0.2830E-01  0.1278E+01
     -7.695  0.9593E-01  0.3262E-01  0.1399E+01
     -7.632  0.9034E-01  0.3370E-01  0.1375E+01
     -7.569  0.8513E-01  0.3174E-01  0.1281E+01
     -7.507  0.8345E-01  0.2839E-01  0.1234E+01
     -7.444  0.8785E-01  0.2585E-01  0.1328E+01
     -7.381  0.9786E-01  0.2580E-01  0.1594E+01
     -7.319  0.1084E+00  0.2883E-01  0.2012E+01
     -7.256  0.1133E+00  0.3404E-01  0.2528E+01
     -7.193  0.1104E+00  0.3937E-01  0.3055E+01
     -7.131  0.1041E+00  0.4281E-01  0.3484E+01
     -7.068  0.1001E+00  0.4372E-01  0.3733E+01
     -7.005  0.9986E-01  0.4271E-01  0.3788E+01
     -6.943  0.9967E-01  0.4047E-01  0.3669E+01
     -6.880  0.9453E-01  0.3705E-01  0.3392E+01
     -6.817  0.8351E-01  0.3264E-01  0.2979E+01
     -6.755  0.7070E-01  0.2834E-01  0.2506E+01
     -6.692  0.6126E-01  0.2587E-01  0.2110E+01
     -6.629  0.5673E-01  0.2635E-01  0.1902E+01
     -6.567  0.5435E-01  0.2945E-01  0.1887E+01
     -6.504  0.5014E-01  0.3371E-01  0.1961E+01
     -6.441  0.4237E-01  0.3758E-01  0.2016E+01
     -6.379  0.3252E-01  0.4009E-01  0.2043E+01
     -6.316  0.2363E-01  0.4098E-01  0.2134E+01
     -6.254  0.1797E-01  0.4045E-01  0.2384E+01
     -6.191  0.1608E-01  0.3898E-01  0.2782E+01
     -6.128  0.1757E-01  0.3710E-01  0.3211E+01
     -6.066  0.2201E-01  0.3501E-01  0.3518E+01
     -6.003  0.2895E-01  0.3253E-01  0.3618E+01
     -5.940  0.3723E-01  0.2961E-01  0.3548E+01
     -5.878  0.4498E-01  0.2681E-01  0.3441E+01
     -5.815  0.5059E-01  0.2504E-01  0.3439E+01
     -5.752  0.5398E-01  0.2481E-01  0.3611E+01
     -5.690  0.5647E-01  0.2567E-01  0.3919E+01
     -5.627  0.5880E-01  0.2647E-01  0.4223E+01
     -5.564  0.5944E-01  0.2626E-01  0.4346E+01
     -5.502  0.5575E-01  0.2495E-01  0.4178E+01
     -5.439  0.4725E-01  0.2327E-01  0.3760E+01
     -5.376  0.3706E-01  0.2225E-01  0.3269E+01
     -5.314  0.2987E-01  0.2252E-01  0.2881E+01
     -5.251  0.2856E-01  0.2381E-01  0.2644E+01
     -5.188  0.3249E-01  0.2501E-01  0.2459E+01
     -5.126  0.3854E-01  0.2505E-01  0.2201E+01
     -5.063  0.4359E-01  0.2379E-01  0.1837E+01
     -5.000  0.4637E-01  0.2201E-01  0.1432E+01
     -4.938  0.4744E-01  0.2082E-01  0.1077E+01
     -4.875  0.4781E-01  0.2094E-01  0.8241E+00
     -4.812  0.4818E-01  0.2248E-01  0.6823E+00
     -4.750  0.4914E-01  0.2495E-01  0.6275E+00
     -4.687  0.5126E-01  0.2750E-01  0.6124E+00
     -4.624  0.5464E-01  0.2956E-01  0.5897E+00
     -4.562  0.5876E-01  0.3129E-01  0.5453E+00
     -4.499  0.6270E-01  0.3342E-01  0.5025E+00
     -4.436  0.6513E-01  0.3666E-01  0.4923E+00
     -4.374  0.6444E-01  0.4107E-01  0.5202E+00
     -4.311  0.5974E-01  0.4581E-01  0.5640E+00
     -4.248  0.5209E-01  0.4945E-01  0.5971E+00
     -4.186  0.4427E-01  0.5091E-01  0.6087E+00
     -4.123  0.3901E-01  0.5030E-01  0.6060E+00
     -4.061  0.3764E-01  0.4874E-01  0.6021E+00
     -3.998  0.3991E-01  0.4731E-01  0.6020E+00
     -3.935  0.4443E-01  0.4637E-01  0.5999E+00
     -3.873  0.4924E-01  0.4578E-01  0.5871E+00
     -3.810  0.5263E-01  0.4529E-01  0.5658E+00
     -3.747  0.5382E-01  0.4458E-01  0.5539E+00
     -3.685  0.5289E-01  0.4328E-01  0.5699E+00
     -3.622  0.5020E-01  0.4112E-01  0.6123E+00
     -3.559  0.4606E-01  0.3822E-01  0.6543E+00
     -3.497  0.4115E-01  0.3496E-01  0.6624E+00
     -3.434  0.3650E-01  0.3187E-01  0.6214E+00
     -3.371  0.3287E-01  0.2933E-01  0.5416E+00
     -3.309  0.3028E-01  0.2735E-01  0.4442E+00
     -3.246  0.2861E-01  0.2562E-01  0.3440E+00
     -3.183  0.2832E-01  0.2421E-01  0.2485E+00
     -3.121  0.3004E-01  0.2368E-01  0.1652E+00
     -3.058  0.3324E-01  0.2423E-01  0.1016E+00
     -2.995  0.3574E-01  0.2491E-01  0.6055E-01
     -2.933  0.3522E-01  0.2458E-01  0.3895E-01
     -2.870  0.3149E-01  0.2363E-01  0.3435E-01
     -2.807  0.2743E-01  0.2416E-01  0.4616E-01
     -2.745  0.2715E-01  0.2763E-01  0.6921E-01
     -2.682  0.3243E-01  0.3265E-01  0.9012E-01
     -2.619  0.4033E-01  0.3582E-01  0.9510E-01
     -2.557  0.4488E-01  0.3476E-01  0.8136E-01
     -2.494  0.4261E-01  0.3052E-01  0.5929E-01
     -2.431  0.3658E-01  0.2713E-01  0.4432E-01
     -2.369  0.3400E-01  0.2900E-01  0.4667E-01
     -2.306  0.3901E-01  0.3750E-01  0.6488E-01
     -2.243  0.4811E-01  0.4891E-01  0.8602E-01
     -2.181  0.5304E-01  0.5604E-01  0.9395E-01
     -2.118  0.4838E-01  0.5343E-01  0.8171E-01
     -2.055  0.3704E-01  0.4257E-01  0.5775E-01
     -1.993  0.2870E-01  0.3191E-01  0.4011E-01
     -1.930  0.3207E-01  0.3067E-01  0.4322E-01
     -1.868  0.4739E-01  0.4185E-01  0.6777E-01
     -1.805  0.6570E-01  0.6020E-01  0.1004E+00
     -1.742  0.7518E-01  0.7596E-01  0.1224E+00
     -1.680  0.6961E-01  0.8114E-01  0.1217E+00
     -1.617  0.5216E-01  0.7419E-01  0.9953E-01
     -1.554  0.3205E-01  0.6015E-01  0.6787E-01
     -1.492  0.1745E-01  0.4619E-01  0.4098E-01
     -1.429  0.1086E-01  0.3659E-01  0.2734E-01
     -1.366  0.1011E-01  0.3132E-01  0.2739E-01
     -1.304  0.1236E-01  0.2897E-01  0.3628E-01
     -1.241  0.1676E-01  0.3016E-01  0.4844E-01
     -1.178  0.2399E-01  0.3754E-01  0.6048E-01
     -1.116  0.3449E-01  0.5274E-01  0.7139E-01
     -1.053  0.4779E-01  0.7366E-01  0.8093E-01
     -0.990  0.6224E-01  0.9489E-01  0.8812E-01
     -0.928  0.7420E-01  0.1106E+00  0.9101E-01
     -0.865  0.7850E-01  0.1169E+00  0.8807E-01
     -0.802  0.7181E-01  0.1127E+00  0.7998E-01
     -0.740  0.5644E-01  0.9991E-01  0.7013E-01
     -0.677  0.3973E-01  0.8351E-01  0.6315E-01
     -0.614  0.2920E-01  0.6996E-01  0.6218E-01
     -0.552  0.2753E-01  0.6333E-01  0.6608E-01
     -0.489  0.3123E-01  0.6211E-01  0.6903E-01
     -0.426  0.3358E-01  0.6094E-01  0.6485E-01
     -0.364  0.3007E-01  0.5652E-01  0.5316E-01
     -0.301  0.2178E-01  0.5127E-01  0.3992E-01
     -0.238  0.1348E-01  0.5007E-01  0.3106E-01
     -0.176  0.8575E-02  0.5475E-01  0.2728E-01
     -0.113  0.7046E-02  0.6325E-01  0.2616E-01
     -0.050  0.7644E-02  0.7250E-01  0.2736E-01
      0.012  0.1066E-01  0.8079E-01  0.3373E-01
      0.075  0.1767E-01  0.8825E-01  0.4773E-01
      0.138  0.2919E-01  0.9681E-01  0.6815E-01
      0.200  0.4302E-01  0.1087E+00  0.8970E-01
      0.263  0.5475E-01  0.1228E+00  0.1050E+00
      0.326  0.5979E-01  0.1329E+00  0.1078E+00
      0.388  0.5561E-01  0.1313E+00  0.9673E-01
      0.451  0.4348E-01  0.1163E+00  0.7684E-01
      0.513  0.2846E-01  0.9468E-01  0.5723E-01
      0.576  0.1664E-01  0.7648E-01  0.4529E-01
      0.639  0.1125E-01  0.6594E-01  0.4177E-01
      0.701  0.1107E-01  0.5913E-01  0.4126E-01
      0.764  0.1256E-01  0.5037E-01  0.3815E-01
      0.827  0.1323E-01  0.3984E-01  0.3250E-01
      0.889  0.1318E-01  0.3429E-01  0.2971E-01
      0.952  0.1395E-01  0.4091E-01  0.3460E-01
      1.015  0.1662E-01  0.6069E-01  0.4630E-01
      1.077  0.2050E-01  0.8620E-01  0.5839E-01
      1.140  0.2330E-01  0.1050E+00  0.6338E-01
      1.203  0.2271E-01  0.1067E+00  0.5780E-01
      1.265  0.1829E-01  0.9026E-01  0.4449E-01
      1.328  0.1218E-01  0.6552E-01  0.3096E-01
      1.391  0.7717E-02  0.4616E-01  0.2460E-01
      1.453  0.7004E-02  0.4022E-01  0.2810E-01
      1.516  0.9656E-02  0.4640E-01  0.3850E-01
      1.579  0.1346E-01  0.5828E-01  0.5002E-01
      1.641  0.1610E-01  0.6981E-01  0.5779E-01
      1.704  0.1646E-01  0.7677E-01  0.5941E-01
      1.767  0.1470E-01  0.7619E-01  0.5464E-01
      1.829  0.1163E-01  0.6695E-01  0.4489E-01
      1.892  0.8089E-02  0.5171E-01  0.3296E-01
      1.955  0.4979E-02  0.3686E-01  0.2263E-01
      2.017  0.3311E-02  0.2902E-01  0.1749E-01
      2.080  0.3887E-02  0.3004E-01  0.1898E-01
      2.143  0.6773E-02  0.3535E-01  0.2507E-01
      2.205  0.1127E-01  0.3815E-01  0.3138E-01
      2.268  0.1652E-01  0.3556E-01  0.3427E-01
      2.331  0.2217E-01  0.3086E-01  0.3338E-01
      2.393  0.2833E-01  0.3010E-01  0.3168E-01
      2.456  0.3456E-01  0.3646E-01  0.3290E-01
      2.519  0.3921E-01  0.4724E-01  0.3839E-01
      2.581  0.4033E-01  0.5615E-01  0.4598E-01
      2.644  0.3764E-01  0.5883E-01  0.5231E-01
      2.706  0.3301E-01  0.5646E-01  0.5607E-01
      2.769  0.2891E-01  0.5375E-01  0.5836E-01
      2.832  0.2664E-01  0.5380E-01  0.6022E-01
      2.894  0.2591E-01  0.5527E-01  0.6065E-01
      2.957  0.2596E-01  0.5430E-01  0.5775E-01
      3.020  0.2681E-01  0.4880E-01  0.5149E-01
      3.082  0.2978E-01  0.4090E-01  0.4489E-01
      3.145  0.3647E-01  0.3538E-01  0.4183E-01
      3.208  0.4730E-01  0.3535E-01  0.4371E-01
      3.270  0.6117E-01  0.3960E-01  0.4872E-01
      3.333  0.7579E-01  0.4414E-01  0.5429E-01
      3.396  0.8764E-01  0.4660E-01  0.5963E-01
      3.458  0.9282E-01  0.4852E-01  0.6579E-01
      3.521  0.9001E-01  0.5343E-01  0.7392E-01
      3.584  0.8260E-01  0.6269E-01  0.8345E-01
      3.646  0.7618E-01  0.7327E-01  0.9125E-01
      3.709  0.7378E-01  0.7985E-01  0.9294E-01
      3.772  0.7413E-01  0.7930E-01  0.8626E-01
      3.834  0.7420E-01  0.7340E-01  0.7406E-01
      3.897  0.7276E-01  0.6719E-01  0.6329E-01
      3.960  0.7160E-01  0.6460E-01  0.5986E-01
      4.022  0.7314E-01  0.6517E-01  0.6363E-01
      4.085  0.7671E-01  0.6504E-01  0.6859E-01
      4.148  0.7830E-01  0.6134E-01  0.6868E-01
      4.210  0.7524E-01  0.5566E-01  0.6370E-01
      4.273  0.7053E-01  0.5298E-01  0.5943E-01
      4.336  0.7118E-01  0.5734E-01  0.6216E-01
      4.398  0.8138E-01  0.6866E-01  0.7308E-01
      4.461  0.9735E-01  0.8280E-01  0.8711E-01
      4.524  0.1090E+00  0.9354E-01  0.9637E-01
      4.586  0.1067E+00  0.9523E-01  0.9522E-01
      4.649  0.8852E-01  0.8568E-01  0.8319E-01
      4.712  0.6074E-01  0.6762E-01  0.6418E-01
      4.774  0.3327E-01  0.4702E-01  0.4366E-01
      4.837  0.1329E-01  0.2911E-01  0.2600E-01
      4.900  0.2509E-02  0.1602E-01  0.1324E-01
      4.962 -0.1468E-02  0.7338E-02  0.5320E-02
      5.025 -0.1977E-02  0.2135E-02  0.1119E-02
      5.087 -0.1368E-02 -0.2350E-03 -0.6177E-03
      5.150 -0.7135E-03 -0.4394E-03 -0.9330E-03
      5.213 -0.2936E-03  0.5255E-03 -0.6310E-03
      5.275 -0.8479E-04  0.1553E-02 -0.2430E-03
      5.338 -0.3885E-05  0.1899E-02 -0.6324E-05
      5.401  0.1443E-04  0.1487E-02  0.6310E-04
      5.463  0.9825E-05  0.7546E-03  0.4406E-04
      5.526  0.2371E-05  0.1752E-03  0.1044E-04
      5.589 -0.1313E-05 -0.8075E-04 -0.6664E-05
      5.651 -0.1731E-05 -0.1107E-03 -0.8507E-05
      5.714 -0.1026E-05 -0.6582E-04 -0.5023E-05
      5.777 -0.4154E-06 -0.2667E-04 -0.2033E-05
      5.839 -0.1261E-06 -0.8100E-05 -0.6172E-06
      5.902 -0.2979E-07 -0.1913E-05 -0.1457E-06
      5.965 -0.5570E-08 -0.3577E-06 -0.2725E-07
      6.027 -0.8335E-09 -0.5353E-07 -0.4078E-08
      6.090 -0.1005E-09 -0.6453E-08 -0.4916E-09
      6.153 -0.9804E-11 -0.6296E-09 -0.4796E-10
      6.215 -0.7765E-12 -0.4987E-10 -0.3799E-11
      6.278 -0.5004E-13 -0.3214E-11 -0.2448E-12
      6.341 -0.2628E-14 -0.1688E-12 -0.1286E-13
      6.403 -0.1127E-15 -0.7237E-14 -0.5513E-15
      6.466 -0.3952E-17 -0.2538E-15 -0.1933E-16
      6.529 -0.1145E-18 -0.7356E-17 -0.5604E-18
      6.591  0.0000E+00  0.0000E+00  0.0000E+00
      6.654  0.0000E+00  0.0000E+00  0.0000E+00
      6.717  0.0000E+00  0.0000E+00  0.0000E+00
      6.779  0.0000E+00  0.0000E+00  0.0000E+00
      6.842  0.0000E+00  0.0000E+00  0.0000E+00
      6.905  0.0000E+00  0.0000E+00  0.0000E+00
      6.967  0.0000E+00  0.0000E+00  0.0000E+00
      7.030  0.0000E+00  0.0000E+00  0.0000E+00
      7.093  0.0000E+00  0.0000E+00  0.0000E+00
      7.155  0.0000E+00  0.0000E+00  0.0000E+00
      7.218  0.0000E+00  0.0000E+00  0.0000E+00
      7.280  0.0000E+00  0.0000E+00  0.0000E+00
      7.28049596    -11.51675684  301     -1.66825256      1.00000000
    -11.517  0.0000E+00  0.0000E+00  0.0000E+00
    -11.454  0.0000E+00  0.0000E+00  0.0000E+00
    -11.391  0.0000E+00  0.0000E+00  0.0000E+00
    -11.329  0.0000E+00  0.0000E+00  0.0000E+00
    -11.266  0.0000E+00  0.0000E+00  0.0000E+00
    -11.203  0.0000E+00  0.0000E+00  0.0000E+00
    -11.141 -0.5183E-30 -0.4629E-31 -0.5320E-32
    -11.078 -0.7269E-28 -0.6491E-29 -0.7460E-30
    -11.015 -0.8417E-26 -0.7518E-27 -0.8646E-28
    -10.953 -0.7989E-24 -0.7136E-25 -0.8210E-26
    -10.890 -0.6218E-22 -0.5554E-23 -0.6393E-24
    -10.828 -0.3967E-20 -0.3544E-21 -0.4082E-22
    -10.765 -0.2075E-18 -0.1854E-19 -0.2137E-20
    -10.702 -0.8891E-17 -0.7945E-18 -0.9174E-19
    -10.640 -0.3023E-15 -0.2703E-16 -0.3128E-17
    -10.577 -0.8660E-14 -0.7745E-15 -0.8988E-16
    -10.514 -0.2030E-12 -0.1817E-13 -0.2117E-14
    -10.452 -0.3891E-11 -0.3486E-12 -0.4087E-13
    -10.389 -0.6099E-10 -0.5471E-11 -0.6470E-12
    -10.326 -0.7813E-09 -0.7022E-10 -0.8407E-11
    -10.264 -0.8178E-08 -0.7372E-09 -0.8977E-10
    -10.201 -0.6994E-07 -0.6329E-08 -0.7890E-09
    -10.138 -0.4885E-06 -0.4445E-07 -0.5719E-08
    -10.076 -0.2786E-05 -0.2554E-06 -0.3425E-07
    -10.013 -0.1295E-04 -0.1199E-05 -0.1694E-06
     -9.950 -0.4891E-04 -0.4589E-05 -0.6907E-06
     -9.888 -0.1486E-03 -0.1417E-04 -0.2297E-05
     -9.825 -0.3545E-03 -0.3453E-04 -0.6103E-05
     -9.762 -0.6224E-03 -0.6248E-04 -0.1234E-04
     -9.700 -0.6286E-03 -0.6767E-04 -0.1667E-04
     -9.637  0.3709E-03  0.2308E-04 -0.6263E-05
     -9.574  0.3226E-02  0.2965E-03  0.3564E-04
     -9.512  0.7946E-02  0.7584E-03  0.1121E-03
     -9.449  0.1300E-01  0.1263E-02  0.2023E-03
     -9.386  0.1633E-01  0.1625E-02  0.2913E-03
     -9.324  0.1772E-01  0.1851E-02  0.4229E-03
     -9.261  0.1923E-01  0.2175E-02  0.6817E-03
     -9.198  0.2229E-01  0.2718E-02  0.1072E-02
     -9.136  0.2503E-01  0.3196E-02  0.1421E-02
     -9.073  0.2402E-01  0.3156E-02  0.1482E-02
     -9.010  0.1880E-01  0.2546E-02  0.1238E-02
     -8.948  0.1334E-01  0.1948E-02  0.1110E-02
     -8.885  0.1237E-01  0.2095E-02  0.1726E-02
     -8.822  0.1643E-01  0.3124E-02  0.3307E-02
     -8.760  0.2149E-01  0.4379E-02  0.5308E-02
     -8.697  0.2362E-01  0.5041E-02  0.6867E-02
     -8.635  0.2295E-01  0.4821E-02  0.7613E-02
     -8.572  0.2243E-01  0.3998E-02  0.7918E-02
     -8.509  0.2413E-01  0.3097E-02  0.8575E-02
     -8.447  0.2818E-01  0.2770E-02  0.1056E-01
     -8.384  0.3462E-01  0.3674E-02  0.1479E-01
     -8.321  0.4409E-01  0.5894E-02  0.2125E-01
     -8.259  0.5559E-01  0.8459E-02  0.2885E-01
     -8.196  0.6508E-01  0.9887E-02  0.3804E-01
     -8.133  0.6863E-01  0.9521E-02  0.5602E-01
     -8.071  0.6747E-01  0.8207E-02  0.1002E+00
     -8.008  0.6837E-01  0.7538E-02  0.1957E+00
     -7.945  0.7792E-01  0.8562E-02  0.3642E+00
     -7.883  0.9605E-01  0.1129E-01  0.6052E+00
     -7.820  0.1149E+00  0.1519E-01  0.8799E+00
     -7.757  0.1241E+00  0.1978E-01  0.1122E+01
     -7.695  0.1192E+00  0.2479E-01  0.1278E+01
     -7.632  0.1045E+00  0.2982E-01  0.1354E+01
     -7.569  0.8873E-01  0.3445E-01  0.1418E+01
     -7.507  0.7785E-01  0.3858E-01  0.1547E+01
     -7.444  0.7294E-01  0.4264E-01  0.1783E+01
     -7.381  0.7331E-01  0.4700E-01  0.2113E+01
     -7.319  0.7817E-01  0.5117E-01  0.2492E+01
     -7.256  0.8526E-01  0.5384E-01  0.2849E+01
     -7.193  0.9009E-01  0.5386E-01  0.3093E+01
     -7.131  0.8844E-01  0.5101E-01  0.3142E+01
     -7.068  0.7933E-01  0.4596E-01  0.2983E+01
     -7.005  0.6531E-01  0.3968E-01  0.2692E+01
     -6.943  0.5076E-01  0.3298E-01  0.2381E+01
     -6.880  0.3994E-01  0.2667E-01  0.2139E+01
     -6.817  0.3547E-01  0.2167E-01  0.2007E+01
     -6.755  0.3721E-01  0.1872E-01  0.1992E+01
     -6.692  0.4261E-01  0.1789E-01  0.2077E+01
     -6.629  0.4855E-01  0.1849E-01  0.2230E+01
     -6.567  0.5317E-01  0.1955E-01  0.2411E+01
     -6.504  0.5611E-01  0.2040E-01  0.2583E+01
     -6.441  0.5773E-01  0.2100E-01  0.2730E+01
     -6.379  0.5854E-01  0.2175E-01  0.2860E+01
     -6.316  0.5884E-01  0.2297E-01  0.2996E+01
     -6.254  0.5865E-01  0.2451E-01  0.3133E+01
     -6.191  0.5783E-01  0.2584E-01  0.3230E+01
     -6.128  0.5653E-01  0.2633E-01  0.3253E+01
     -6.066  0.5520E-01  0.2571E-01  0.3228E+01
     -6.003  0.5447E-01  0.2429E-01  0.3251E+01
     -5.940  0.5489E-01  0.2297E-01  0.3426E+01