  64  64   1   0
  0.4207493E+02  0.1080745E-08  0.1080843E-08  0.2661834E-08  0.1000000E-15
  1.000000000000000E-004
  CAR 
 unknown system                          
      4.61922668    -11.99455226  301     -0.32755821      1.00000000
    -11.995  0.0000E+00  0.0000E+00
    -11.939  0.0000E+00  0.0000E+00
    -11.884  0.0000E+00  0.0000E+00
    -11.828  0.0000E+00  0.0000E+00
    -11.773  0.0000E+00  0.0000E+00
    -11.718  0.0000E+00  0.0000E+00
    -11.662  0.0000E+00  0.0000E+00
    -11.607 -0.1527E-29 -0.8458E-31
    -11.552 -0.1172E-27 -0.6572E-29
    -11.496 -0.7784E-26 -0.4376E-27
    -11.441 -0.4428E-24 -0.2496E-25
    -11.385 -0.2157E-22 -0.1219E-23
    -11.330 -0.8995E-21 -0.5103E-22
    -11.275 -0.3210E-19 -0.1829E-20
    -11.219 -0.9805E-18 -0.5613E-19
    -11.164 -0.2499E-16 -0.1440E-17
    -11.108 -0.5544E-15 -0.3214E-16
    -11.053 -0.1055E-13 -0.6166E-15
    -10.998 -0.1716E-12 -0.1012E-13
    -10.942 -0.2383E-11 -0.1421E-12
    -10.887 -0.2824E-10 -0.1706E-11
    -10.832 -0.2854E-09 -0.1751E-10
    -10.776 -0.2458E-08 -0.1536E-09
    -10.721 -0.1803E-07 -0.1152E-08
    -10.665 -0.1126E-06 -0.7387E-08
    -10.610 -0.5980E-06 -0.4050E-07
    -10.555 -0.2700E-05 -0.1900E-06
    -10.499 -0.1035E-04 -0.7635E-06
    -10.444 -0.3368E-04 -0.2629E-05
    -10.389 -0.9262E-04 -0.7758E-05
    -10.333 -0.2134E-03 -0.1958E-04
    -10.278 -0.4031E-03 -0.4190E-04
    -10.222 -0.5854E-03 -0.7432E-04
    -10.167 -0.5070E-03 -0.1024E-03
    -10.112  0.3137E-03 -0.8502E-04
    -10.056  0.2443E-02  0.5026E-04
    -10.001  0.6089E-02  0.3875E-03
     -9.946  0.1061E-01  0.9750E-03
     -9.890  0.1460E-01  0.1784E-02
     -9.835  0.1695E-01  0.2722E-02
     -9.779  0.1796E-01  0.3717E-02
     -9.724  0.1902E-01  0.4771E-02
     -9.669  0.2085E-01  0.5925E-02
     -9.613  0.2222E-01  0.7156E-02
     -9.558  0.2110E-01  0.8324E-02
     -9.502  0.1697E-01  0.9264E-02
     -9.447  0.1166E-01  0.9910E-02
     -9.392  0.7902E-02  0.1035E-01
     -9.336  0.7244E-02  0.1075E-01
     -9.281  0.9293E-02  0.1126E-01
     -9.226  0.1240E-01  0.1195E-01
     -9.170  0.1491E-01  0.1278E-01
     -9.115  0.1632E-01  0.1368E-01
     -9.059  0.1762E-01  0.1466E-01
     -9.004  0.2043E-01  0.1579E-01
     -8.949  0.2498E-01  0.1717E-01
     -8.893  0.2915E-01  0.1878E-01
     -8.838  0.3000E-01  0.2045E-01
     -8.783  0.2678E-01  0.2193E-01
     -8.727  0.2204E-01  0.2315E-01
     -8.672  0.1939E-01  0.2422E-01
     -8.616  0.2035E-01  0.2535E-01
     -8.561  0.2368E-01  0.2666E-01
     -8.506  0.2748E-01  0.2818E-01
     -8.450  0.3109E-01  0.2990E-01
     -8.395  0.3500E-01  0.3184E-01
     -8.340  0.3937E-01  0.3402E-01
     -8.284  0.4321E-01  0.3642E-01
     -8.229  0.4482E-01  0.3890E-01
     -8.173  0.4302E-01  0.4128E-01
     -8.118  0.3833E-01  0.4340E-01
     -8.063  0.3326E-01  0.4525E-01
     -8.007  0.3163E-01  0.4700E-01
     -7.952  0.3646E-01  0.4902E-01
     -7.896  0.4795E-01  0.5167E-01
     -7.841  0.6270E-01  0.5514E-01
     -7.786  0.7567E-01  0.5933E-01
     -7.730  0.8334E-01  0.6395E-01
     -7.675  0.8589E-01  0.6871E-01
     -7.620  0.8698E-01  0.7352E-01
     -7.564  0.9156E-01  0.7859E-01
     -7.509  0.1036E+00  0.8433E-01
     -7.453  0.1241E+00  0.9120E-01
     -7.398  0.1507E+00  0.9955E-01
     -7.343  0.1783E+00  0.1094E+00
     -7.287  0.2010E+00  0.1206E+00
     -7.232  0.2154E+00  0.1325E+00
     -7.177  0.2211E+00  0.1447E+00
     -7.121  0.2203E+00  0.1569E+00
     -7.066  0.2164E+00  0.1689E+00
     -7.010  0.2131E+00  0.1807E+00
     -6.955  0.2140E+00  0.1926E+00
     -6.900  0.2211E+00  0.2048E+00
     -6.844  0.2348E+00  0.2178E+00
     -6.789  0.2536E+00  0.2319E+00
     -6.734  0.2755E+00  0.2471E+00
     -6.678  0.2973E+00  0.2636E+00
     -6.623  0.3155E+00  0.2811E+00
     -6.567  0.3288E+00  0.2993E+00
     -6.512  0.3392E+00  0.3180E+00
     -6.457  0.3496E+00  0.3374E+00
     -6.401  0.3605E+00  0.3574E+00
     -6.346  0.3698E+00  0.3778E+00
     -6.290  0.3753E+00  0.3986E+00
     -6.235  0.3786E+00  0.4196E+00
     -6.180  0.3833E+00  0.4408E+00
     -6.124  0.3907E+00  0.4625E+00
     -6.069  0.3976E+00  0.4845E+00
     -6.014  0.3988E+00  0.5066E+00
     -5.958  0.3909E+00  0.5282E+00
     -5.903  0.3757E+00  0.5490E+00
     -5.847  0.3583E+00  0.5689E+00
     -5.792  0.3439E+00  0.5879E+00
     -5.737  0.3344E+00  0.6064E+00
     -5.681  0.3288E+00  0.6246E+00
     -5.626  0.3265E+00  0.6427E+00
     -5.571  0.3283E+00  0.6609E+00
     -5.515  0.3350E+00  0.6795E+00
     -5.460  0.3455E+00  0.6986E+00
     -5.404  0.3565E+00  0.7183E+00
     -5.349  0.3642E+00  0.7385E+00
     -5.294  0.3665E+00  0.7588E+00
     -5.238  0.3630E+00  0.7789E+00
     -5.183  0.3542E+00  0.7985E+00
     -5.128  0.3423E+00  0.8175E+00
     -5.072  0.3311E+00  0.8358E+00
     -5.017  0.3244E+00  0.8538E+00
     -4.961  0.3242E+00  0.8717E+00
     -4.906  0.3289E+00  0.8899E+00
     -4.851  0.3354E+00  0.9085E+00
     -4.795  0.3413E+00  0.9274E+00
     -4.740  0.3458E+00  0.9466E+00
     -4.684  0.3488E+00  0.9659E+00
     -4.629  0.3491E+00  0.9852E+00
     -4.574  0.3432E+00  0.1004E+01
     -4.518  0.3291E+00  0.1022E+01
     -4.463  0.3104E+00  0.1040E+01
     -4.408  0.2954E+00  0.1056E+01
     -4.352  0.2927E+00  0.1072E+01
     -4.297  0.3044E+00  0.1089E+01
     -4.241  0.3270E+00  0.1107E+01
     -4.186  0.3547E+00  0.1127E+01
     -4.131  0.3844E+00  0.1148E+01
     -4.075  0.4154E+00  0.1171E+01
     -4.020  0.4475E+00  0.1196E+01
     -3.965  0.4769E+00  0.1222E+01
     -3.909  0.4970E+00  0.1250E+01
     -3.854  0.5022E+00  0.1278E+01
     -3.798  0.4948E+00  0.1305E+01
     -3.743  0.4864E+00  0.1332E+01
     -3.688  0.4905E+00  0.1359E+01
     -3.632  0.5126E+00  0.1388E+01
     -3.577  0.5457E+00  0.1418E+01
     -3.522  0.5757E+00  0.1450E+01
     -3.466  0.5911E+00  0.1482E+01
     -3.411  0.5909E+00  0.1515E+01
     -3.355  0.5834E+00  0.1547E+01
     -3.300  0.5797E+00  0.1579E+01
     -3.245  0.5866E+00  0.1612E+01
     -3.189  0.6053E+00  0.1645E+01
     -3.134  0.6322E+00  0.1681E+01
     -3.078  0.6580E+00  0.1717E+01
     -3.023  0.6671E+00  0.1754E+01
     -2.968  0.6435E+00  0.1790E+01
     -2.912  0.5827E+00  0.1822E+01
     -2.857  0.4998E+00  0.1849E+01
     -2.802  0.4218E+00  0.1873E+01
     -2.746  0.3687E+00  0.1893E+01
     -2.691  0.3399E+00  0.1912E+01
     -2.635  0.3194E+00  0.1930E+01
     -2.580  0.2951E+00  0.1946E+01
     -2.525  0.2719E+00  0.1961E+01
     -2.469  0.2685E+00  0.1976E+01
     -2.414  0.3017E+00  0.1993E+01
     -2.359  0.3743E+00  0.2013E+01
     -2.303  0.4716E+00  0.2040E+01
     -2.248  0.5668E+00  0.2071E+01
     -2.192  0.6301E+00  0.2106E+01
     -2.137  0.6403E+00  0.2141E+01
     -2.082  0.5946E+00  0.2174E+01
     -2.026  0.5102E+00  0.2203E+01
     -1.971  0.4150E+00  0.2225E+01
     -1.916  0.3338E+00  0.2244E+01
     -1.860  0.2795E+00  0.2259E+01
     -1.805  0.2542E+00  0.2274E+01
     -1.749  0.2554E+00  0.2288E+01
     -1.694  0.2766E+00  0.2303E+01
     -1.639  0.3079E+00  0.2320E+01
     -1.583  0.3391E+00  0.2339E+01
     -1.528  0.3658E+00  0.2359E+01
     -1.472  0.3902E+00  0.2381E+01
     -1.417  0.4150E+00  0.2404E+01
     -1.362  0.4385E+00  0.2428E+01
     -1.306  0.4556E+00  0.2453E+01
     -1.251  0.4654E+00  0.2479E+01
     -1.196  0.4744E+00  0.2505E+01
     -1.140  0.4906E+00  0.2532E+01
     -1.085  0.5158E+00  0.2561E+01
     -1.029  0.5433E+00  0.2591E+01
     -0.974  0.5626E+00  0.2622E+01
     -0.919  0.5639E+00  0.2653E+01
     -0.863  0.5392E+00  0.2683E+01
     -0.808  0.4845E+00  0.2710E+01
     -0.753  0.4066E+00  0.2733E+01
     -0.697  0.3266E+00  0.2751E+01
     -0.642  0.2725E+00  0.2766E+01
     -0.586  0.2633E+00  0.2780E+01
     -0.531  0.2966E+00  0.2797E+01
     -0.476  0.3511E+00  0.2816E+01
     -0.420  0.4025E+00  0.2839E+01
     -0.365  0.4386E+00  0.2863E+01
     -0.310  0.4621E+00  0.2888E+01
     -0.254  0.4814E+00  0.2915E+01
     -0.199  0.4983E+00  0.2943E+01
     -0.143  0.5053E+00  0.2971E+01
     -0.088  0.4944E+00  0.2998E+01
     -0.033  0.4674E+00  0.3024E+01
      0.023  0.4376E+00  0.3048E+01
      0.078  0.4217E+00  0.3072E+01
      0.134  0.4292E+00  0.3095E+01
      0.189  0.4576E+00  0.3121E+01
      0.244  0.4946E+00  0.3148E+01
      0.300  0.5246E+00  0.3177E+01
      0.355  0.5357E+00  0.3207E+01
      0.410  0.5255E+00  0.3236E+01
      0.466  0.4999E+00  0.3264E+01
      0.521  0.4678E+00  0.3289E+01
      0.577  0.4331E+00  0.3313E+01
      0.632  0.3924E+00  0.3335E+01
      0.687  0.3402E+00  0.3354E+01
      0.743  0.2777E+00  0.3369E+01
      0.798  0.2163E+00  0.3381E+01
      0.853  0.1712E+00  0.3391E+01
      0.909  0.1508E+00  0.3399E+01
      0.964  0.1495E+00  0.3407E+01
      1.020  0.1521E+00  0.3416E+01
      1.075  0.1445E+00  0.3424E+01
      1.130  0.1225E+00  0.3431E+01
      1.186  0.9305E-01  0.3436E+01
      1.241  0.6732E-01  0.3440E+01
      1.296  0.5370E-01  0.3443E+01
      1.352  0.5418E-01  0.3446E+01
      1.407  0.6530E-01  0.3449E+01
      1.463  0.8067E-01  0.3454E+01
      1.518  0.9305E-01  0.3459E+01
      1.573  0.9639E-01  0.3464E+01
      1.629  0.8826E-01  0.3469E+01
      1.684  0.7109E-01  0.3473E+01
      1.740  0.5049E-01  0.3476E+01
      1.795  0.3175E-01  0.3478E+01
      1.850  0.1748E-01  0.3478E+01
      1.906  0.7884E-02  0.3479E+01
      1.961  0.2150E-02  0.3479E+01
      2.016 -0.6754E-03  0.3479E+01
      2.072 -0.1536E-02  0.3479E+01
      2.127 -0.1367E-02  0.3479E+01
      2.183 -0.9155E-03  0.3479E+01
      2.238 -0.5830E-03  0.3479E+01
      2.293 -0.4262E-03  0.3479E+01
      2.349 -0.2523E-03  0.3479E+01
      2.404  0.2586E-03  0.3479E+01
      2.459  0.1355E-02  0.3479E+01
      2.515  0.2944E-02  0.3479E+01
      2.570  0.4466E-02  0.3479E+01
      2.626  0.5170E-02  0.3479E+01
      2.681  0.4662E-02  0.3480E+01
      2.736  0.3230E-02  0.3480E+01
      2.792  0.1604E-02  0.3480E+01
      2.847  0.4127E-03  0.3480E+01
      2.902 -0.1548E-03  0.3480E+01
      2.958 -0.2702E-03  0.3480E+01
      3.013 -0.1951E-03  0.3480E+01
      3.069 -0.9935E-04  0.3480E+01
      3.124 -0.3953E-04  0.3480E+01
      3.179 -0.1277E-04  0.3480E+01
      3.235 -0.3410E-05  0.3480E+01
      3.290 -0.7619E-06  0.3480E+01
      3.346 -0.1433E-06  0.3480E+01
      3.401 -0.2278E-07  0.3480E+01
      3.456 -0.3072E-08  0.3480E+01
      3.512 -0.3522E-09  0.3480E+01
      3.567 -0.3438E-10  0.3480E+01
      3.622 -0.2862E-11  0.3480E+01
      3.678 -0.2034E-12  0.3480E+01
      3.733 -0.1234E-13  0.3480E+01
      3.789 -0.6390E-15  0.3480E+01
      3.844 -0.3258E-16  0.3480E+01
      3.899  0.0000E+00  0.3480E+01
      3.955  0.0000E+00  0.3480E+01
      4.010  0.0000E+00  0.3480E+01
      4.065  0.0000E+00  0.3480E+01
      4.121  0.0000E+00  0.3480E+01
      4.176  0.0000E+00  0.3480E+01
      4.232  0.0000E+00  0.3480E+01
      4.287  0.0000E+00  0.3480E+01
      4.342  0.0000E+00  0.3480E+01
      4.398  0.0000E+00  0.3480E+01
      4.453  0.0000E+00  0.3480E+01
      4.508  0.0000E+00  0.3480E+01
      4.564  0.0000E+00  0.3480E+01
      4.619  0.0000E+00  0.3480E+01
      4.61922668    -11.99455226  301     -0.32755821      1.00000000
    -11.995  0.0000E+00  0.0000E+00  0.0000E+00
    -11.939  0.0000E+00  0.0000E+00  0.0000E+00
    -11.884  0.0000E+00  0.0000E+00  0.0000E+00
    -11.828  0.0000E+00  0.0000E+00  0.0000E+00
    -11.773  0.0000E+00  0.0000E+00  0.0000E+00
    -11.718  0.0000E+00  0.0000E+00  0.0000E+00
    -11.662  0.0000E+00  0.0000E+00  0.0000E+00
    -11.607 -0.2292E-29 -0.3289E-30 -0.2826E-31
    -11.552 -0.1758E-27 -0.2523E-28 -0.2168E-29
    -11.496 -0.1168E-25 -0.1676E-26 -0.1440E-27
    -11.441 -0.6644E-24 -0.9537E-25 -0.8194E-26
    -11.385 -0.3236E-22 -0.4645E-23 -0.3992E-24
    -11.330 -0.1350E-20 -0.1937E-21 -0.1665E-22
    -11.275 -0.4817E-19 -0.6914E-20 -0.5943E-21
    -11.219 -0.1471E-17 -0.2112E-18 -0.1815E-19
    -11.164 -0.3750E-16 -0.5383E-17 -0.4629E-18
    -11.108 -0.8317E-15 -0.1194E-15 -0.1027E-16
    -11.053 -0.1584E-13 -0.2274E-14 -0.1957E-15
    -10.998 -0.2575E-12 -0.3698E-13 -0.3186E-14
    -10.942 -0.3576E-11 -0.5136E-12 -0.4430E-13
    -10.887 -0.4238E-10 -0.6087E-11 -0.5261E-12
    -10.832 -0.4282E-09 -0.6154E-10 -0.5333E-11
    -10.776 -0.3688E-08 -0.5303E-09 -0.4614E-10
    -10.721 -0.2706E-07 -0.3893E-08 -0.3407E-09
    -10.665 -0.1689E-06 -0.2434E-07 -0.2148E-08
    -10.610 -0.8974E-06 -0.1295E-06 -0.1157E-07
    -10.555 -0.4052E-05 -0.5862E-06 -0.5325E-07
    -10.499 -0.1554E-04 -0.2256E-05 -0.2099E-06
    -10.444 -0.5055E-04 -0.7375E-05 -0.7091E-06
    -10.389 -0.1390E-03 -0.2042E-04 -0.2050E-05
    -10.333 -0.3202E-03 -0.4749E-04 -0.5043E-05
    -10.278 -0.6043E-03 -0.9082E-04 -0.1037E-04
    -10.222 -0.8767E-03 -0.1345E-03 -0.1701E-04
    -10.167 -0.7566E-03 -0.1224E-03 -0.1930E-04
    -10.112  0.4786E-03  0.5488E-04 -0.4453E-05
    -10.056  0.3679E-02  0.5290E-03  0.4438E-04
    -10.001  0.9165E-02  0.1353E-02  0.1357E-03
     -9.946  0.1599E-01  0.2387E-02  0.2556E-03
     -9.890  0.2206E-01  0.3323E-02  0.3745E-03
     -9.835  0.2566E-01  0.3917E-02  0.4816E-03
     -9.779  0.2701E-01  0.4237E-02  0.6120E-03
     -9.724  0.2788E-01  0.4572E-02  0.8141E-03
     -9.669  0.2914E-01  0.5019E-02  0.1069E-02
     -9.613  0.2936E-01  0.5264E-02  0.1260E-02
     -9.558  0.2655E-01  0.4897E-02  0.1253E-02
     -9.502  0.2108E-01  0.3939E-02  0.1028E-02
     -9.447  0.1606E-01  0.2944E-02  0.7148E-03
     -9.392  0.1481E-01  0.2557E-02  0.5030E-03
     -9.336  0.1840E-01  0.3049E-02  0.5127E-03
     -9.281  0.2526E-01  0.4193E-02  0.7304E-03
     -9.226  0.3239E-01  0.5460E-02  0.1039E-02
     -9.170  0.3692E-01  0.6330E-02  0.1318E-02
     -9.115  0.3781E-01  0.6639E-02  0.1560E-02
     -9.059  0.3699E-01  0.6773E-02  0.1918E-02
     -9.004  0.3809E-01  0.7378E-02  0.2571E-02
     -8.949  0.4275E-01  0.8644E-02  0.3457E-02
     -8.893  0.4829E-01  0.9890E-02  0.4179E-02
     -8.838  0.5011E-01  0.1010E-01  0.4272E-02
     -8.783  0.4676E-01  0.8986E-02  0.3674E-02
     -8.727  0.4173E-01  0.7389E-02  0.2881E-02
     -8.672  0.3969E-01  0.6472E-02  0.2572E-02
     -8.616  0.4168E-01  0.6668E-02  0.3057E-02
     -8.561  0.4499E-01  0.7510E-02  0.4125E-02
     -8.506  0.4734E-01  0.8409E-02  0.5370E-02
     -8.450  0.4986E-01  0.9346E-02  0.6576E-02
     -8.395  0.5569E-01  0.1069E-01  0.7757E-02
     -8.340  0.6588E-01  0.1251E-01  0.8896E-02
     -8.284  0.7706E-01  0.1415E-01  0.9760E-02
     -8.229  0.8313E-01  0.1463E-01  0.9991E-02
     -8.173  0.7981E-01  0.1347E-01  0.9404E-02
     -8.118  0.6854E-01  0.1120E-01  0.8305E-02
     -8.063  0.5672E-01  0.9348E-02  0.7667E-02
     -8.007  0.5344E-01  0.9630E-02  0.8885E-02
     -7.952  0.6307E-01  0.1284E-01  0.1296E-01
     -7.896  0.8108E-01  0.1803E-01  0.1962E-01
     -7.841  0.9621E-01  0.2292E-01  0.2730E-01
     -7.786  0.9881E-01  0.2538E-01  0.3442E-01
     -7.730  0.8880E-01  0.2507E-01  0.4082E-01
     -7.675  0.7618E-01  0.2356E-01  0.4811E-01
     -7.620  0.7384E-01  0.2308E-01  0.5856E-01
     -7.564  0.8939E-01  0.2498E-01  0.7377E-01
     -7.509  0.1216E+00  0.2916E-01  0.9407E-01
     -7.453  0.1616E+00  0.3453E-01  0.1187E+00
     -7.398  0.1977E+00  0.3971E-01  0.1464E+00
     -7.343  0.2203E+00  0.4371E-01  0.1756E+00
     -7.287  0.2269E+00  0.4617E-01  0.2048E+00
     -7.232  0.2220E+00  0.4731E-01  0.2334E+00
     -7.177  0.2122E+00  0.4768E-01  0.2604E+00
     -7.121  0.2012E+00  0.4789E-01  0.2846E+00
     -7.066  0.1890E+00  0.4844E-01  0.3033E+00
     -7.010  0.1752E+00  0.4967E-01  0.3141E+00
     -6.955  0.1624E+00  0.5166E-01  0.3163E+00
     -6.900  0.1546E+00  0.5401E-01  0.3124E+00
     -6.844  0.1543E+00  0.5611E-01  0.3073E+00
     -6.789  0.1622E+00  0.5762E-01  0.3074E+00
     -6.734  0.1782E+00  0.5884E-01  0.3198E+00
     -6.678  0.2012E+00  0.6037E-01  0.3505E+00
     -6.623  0.2267E+00  0.6242E-01  0.4015E+00
     -6.567  0.2466E+00  0.6462E-01  0.4702E+00
     -6.512  0.2533E+00  0.6633E-01  0.5471E+00
     -6.457  0.2452E+00  0.6695E-01  0.6171E+00
     -6.401  0.2285E+00  0.6617E-01  0.6654E+00
     -6.346  0.2122E+00  0.6405E-01  0.6864E+00
     -6.290  0.2016E+00  0.6119E-01  0.6896E+00
     -6.235  0.1957E+00  0.5878E-01  0.6940E+00
     -6.180  0.1904E+00  0.5802E-01  0.7150E+00
     -6.124  0.1829E+00  0.5940E-01  0.7545E+00
     -6.069  0.1726E+00  0.6226E-01  0.8010E+00
     -6.014  0.1592E+00  0.6512E-01  0.8379E+00
     -5.958  0.1427E+00  0.6658E-01  0.8525E+00
     -5.903  0.1235E+00  0.6596E-01  0.8397E+00
     -5.847  0.1033E+00  0.6354E-01  0.8012E+00
     -5.792  0.8442E-01  0.6032E-01  0.7447E+00
     -5.737  0.6847E-01  0.5757E-01  0.6856E+00
     -5.681  0.5628E-01  0.5634E-01  0.6467E+00
     -5.626  0.4793E-01  0.5692E-01  0.6520E+00
     -5.571  0.4279E-01  0.5874E-01  0.7115E+00
     -5.515  0.3985E-01  0.6073E-01  0.8101E+00
     -5.460  0.3838E-01  0.6202E-01  0.9105E+00
     -5.404  0.3824E-01  0.6243E-01  0.9743E+00
     -5.349  0.3936E-01  0.6241E-01  0.9832E+00
     -5.294  0.4082E-01  0.6229E-01  0.9462E+00
     -5.238  0.4101E-01  0.6180E-01  0.8877E+00
     -5.183  0.3882E-01  0.6025E-01  0.8300E+00
     -5.128  0.3482E-01  0.5733E-01  0.7837E+00
     -5.072  0.3096E-01  0.5364E-01  0.7494E+00
     -5.017  0.2917E-01  0.5039E-01  0.7245E+00
     -4.961  0.3002E-01  0.4859E-01  0.7070E+00
     -4.906  0.3270E-01  0.4838E-01  0.6950E+00
     -4.851  0.3594E-01  0.4906E-01  0.6861E+00
     -4.795  0.3867E-01  0.4961E-01  0.6783E+00
     -4.740  0.4011E-01  0.4915E-01  0.6709E+00
     -4.684  0.3949E-01  0.4721E-01  0.6644E+00
     -4.629  0.3631E-01  0.4372E-01  0.6579E+00
     -4.574  0.3089E-01  0.3890E-01  0.6492E+00
     -4.518  0.2455E-01  0.3344E-01  0.6415E+00
     -4.463  0.1916E-01  0.2874E-01  0.6483E+00
     -4.408  0.1624E-01  0.2646E-01  0.6863E+00
     -4.352  0.1636E-01  0.2741E-01  0.7600E+00
     -4.297  0.1918E-01  0.3086E-01  0.8540E+00
     -4.241  0.2386E-01  0.3500E-01  0.9436E+00
     -4.186  0.2953E-01  0.3851E-01  0.1012E+01
     -4.131  0.3555E-01  0.4161E-01  0.1061E+01
     -4.075  0.4144E-01  0.4576E-01  0.1103E+01
     -4.020  0.4690E-01  0.5216E-01  0.1149E+01
     -3.965  0.5162E-01  0.6056E-01  0.1196E+01
     -3.909  0.5509E-01  0.6925E-01  0.1234E+01
     -3.854  0.5663E-01  0.7617E-01  0.1259E+01
     -3.798  0.5572E-01  0.8013E-01  0.1283E+01
     -3.743  0.5245E-01  0.8138E-01  0.1321E+01
     -3.688  0.4773E-01  0.8095E-01  0.1381E+01
     -3.632  0.4289E-01  0.7957E-01  0.1454E+01
     -3.577  0.3922E-01  0.7716E-01  0.1512E+01
     -3.522  0.3771E-01  0.7372E-01  0.1536E+01
     -3.466  0.3914E-01  0.7058E-01  0.1524E+01
     -3.411  0.4388E-01  0.7038E-01  0.1502E+01
     -3.355  0.5140E-01  0.7524E-01  0.1501E+01
     -3.300  0.6010E-01  0.8498E-01  0.1546E+01
     -3.245  0.6821E-01  0.9682E-01  0.1638E+01
     -3.189  0.7494E-01  0.1070E+00  0.1753E+01
     -3.134  0.8051E-01  0.1128E+00  0.1861E+01
     -3.078  0.8477E-01  0.1138E+00  0.1925E+01
     -3.023  0.8628E-01  0.1119E+00  0.1912E+01
     -2.968  0.8336E-01  0.1096E+00  0.1802E+01
     -2.912  0.7612E-01  0.1087E+00  0.1609E+01
     -2.857  0.6727E-01  0.1101E+00  0.1387E+01
     -2.802  0.6014E-01  0.1138E+00  0.1208E+01
     -2.746  0.5590E-01  0.1188E+00  0.1107E+01
     -2.691  0.5281E-01  0.1224E+00  0.1056E+01
     -2.635  0.4837E-01  0.1219E+00  0.9935E+00
     -2.580  0.4213E-01  0.1172E+00  0.8866E+00
     -2.525  0.3616E-01  0.1118E+00  0.7666E+00
     -2.469  0.3314E-01  0.1097E+00  0.7059E+00
     -2.414  0.3430E-01  0.1126E+00  0.7635E+00
     -2.359  0.3908E-01  0.1198E+00  0.9473E+00
     -2.303  0.4580E-01  0.1299E+00  0.1210E+01
     -2.248  0.5204E-01  0.1406E+00  0.1469E+01
     -2.192  0.5512E-01  0.1481E+00  0.1638E+01
     -2.137  0.5331E-01  0.1487E+00  0.1661E+01
     -2.082  0.4736E-01  0.1413E+00  0.1538E+01
     -2.026  0.4034E-01  0.1287E+00  0.1324E+01
     -1.971  0.3541E-01  0.1157E+00  0.1093E+01
     -1.916  0.3352E-01  0.1052E+00  0.9020E+00
     -1.860  0.3297E-01  0.9635E-01  0.7715E+00
     -1.805  0.3130E-01  0.8738E-01  0.7029E+00
     -1.749  0.2737E-01  0.7763E-01  0.6932E+00
     -1.694  0.2213E-01  0.6834E-01  0.7349E+00
     -1.639  0.1805E-01  0.6207E-01  0.8097E+00
     -1.583  0.1762E-01  0.6219E-01  0.8947E+00
     -1.528  0.2183E-01  0.7117E-01  0.9749E+00
     -1.472  0.2904E-01  0.8753E-01  0.1046E+01
     -1.417  0.3570E-01  0.1048E+00  0.1106E+01
     -1.362  0.3872E-01  0.1153E+00  0.1147E+01
     -1.306  0.3806E-01  0.1160E+00  0.1169E+01
     -1.251  0.3686E-01  0.1103E+00  0.1187E+01
     -1.196  0.3865E-01  0.1044E+00  0.1229E+01
     -1.140  0.4416E-01  0.1016E+00  0.1312E+01
     -1.085  0.5065E-01  0.1014E+00  0.1425E+01
     -1.029  0.5447E-01  0.1015E+00  0.1534E+01
     -0.974  0.5416E-01  0.1006E+00  0.1608E+01
     -0.919  0.5085E-01  0.9787E-01  0.1628E+01
     -0.863  0.4639E-01  0.9232E-01  0.1579E+01
     -0.808  0.4163E-01  0.8295E-01  0.1447E+01
     -0.753  0.3661E-01  0.7109E-01  0.1239E+01
     -0.697  0.3184E-01  0.6107E-01  0.1011E+01
     -0.642  0.2843E-01  0.5774E-01  0.8476E+00
     -0.586  0.2718E-01  0.6289E-01  0.8179E+00
     -0.531  0.2774E-01  0.7367E-01  0.9189E+00
     -0.476  0.2883E-01  0.8423E-01  0.1079E+01
     -0.420  0.2915E-01  0.8919E-01  0.1211E+01
     -0.365  0.2818E-01  0.8659E-01  0.1278E+01
     -0.310  0.2634E-01  0.7873E-01  0.1302E+01
     -0.254  0.2463E-01  0.7029E-01  0.1331E+01
     -0.199  0.2388E-01  0.6529E-01  0.1379E+01
     -0.143  0.2425E-01  0.6457E-01  0.1418E+01
     -0.088  0.2507E-01  0.6572E-01  0.1401E+01
     -0.033  0.2534E-01  0.6522E-01  0.1312E+01
      0.023  0.2449E-01  0.6118E-01  0.1185E+01
      0.078  0.2284E-01  0.5444E-01  0.1081E+01
      0.134  0.2133E-01  0.4756E-01  0.1054E+01
      0.189  0.2086E-01  0.4314E-01  0.1117E+01
      0.244  0.2189E-01  0.4290E-01  0.1235E+01
      0.300  0.2445E-01  0.4735E-01  0.1349E+01
      0.355  0.2820E-01  0.5545E-01  0.1408E+01
      0.410  0.3236E-01  0.6444E-01  0.1390E+01
      0.466  0.3560E-01  0.7077E-01  0.1316E+01
      0.521  0.3647E-01  0.7181E-01  0.1221E+01
      0.577  0.3406E-01  0.6700E-01  0.1131E+01
      0.632  0.2871E-01  0.5766E-01  0.1044E+01
      0.687  0.2210E-01  0.4622E-01  0.9371E+00
      0.743  0.1697E-01  0.3591E-01  0.8025E+00
      0.798  0.1615E-01  0.3049E-01  0.6651E+00
      0.853  0.2095E-01  0.3278E-01  0.5672E+00
      0.909  0.2976E-01  0.4237E-01  0.5292E+00
      0.964  0.3812E-01  0.5453E-01  0.5280E+00
      1.020  0.4110E-01  0.6253E-01  0.5162E+00
      1.075  0.3650E-01  0.6184E-01  0.4624E+00
      1.130  0.2616E-01  0.5295E-01  0.3711E+00
      1.186  0.1462E-01  0.4062E-01  0.2706E+00
      1.241  0.6433E-02  0.3053E-01  0.1887E+00
      1.296  0.4298E-02  0.2638E-01  0.1392E+00
      1.352  0.8657E-02  0.2902E-01  0.1225E+00
      1.407  0.1789E-01  0.3712E-01  0.1309E+00
      1.463  0.2857E-01  0.4772E-01  0.1520E+00
      1.518  0.3633E-01  0.5682E-01  0.1702E+00
      1.573  0.3781E-01  0.6051E-01  0.1725E+00
      1.629  0.3259E-01  0.5707E-01  0.1545E+00
      1.684  0.2338E-01  0.4788E-01  0.1222E+00
      1.740  0.1407E-01  0.3619E-01  0.8678E-01
      1.795  0.7233E-02  0.2490E-01  0.5665E-01
      1.850  0.3276E-02  0.1540E-01  0.3426E-01
      1.906  0.1294E-02  0.8042E-02  0.1829E-01
      1.961  0.3122E-03  0.2932E-02  0.7273E-02
      2.016 -0.1758E-03  0.2619E-04  0.6322E-03
      2.072 -0.3505E-03 -0.1088E-02 -0.2215E-02
      2.127 -0.3269E-03 -0.1151E-02 -0.2523E-02
      2.183 -0.2288E-03 -0.8920E-03 -0.1771E-02
      2.238 -0.1456E-03 -0.7385E-03 -0.9693E-03
      2.293 -0.9864E-04 -0.7260E-03 -0.4693E-03
      2.349 -0.4924E-04 -0.5099E-03 -0.1941E-03
      2.404  0.7000E-04  0.5240E-03  0.7015E-04
      2.459  0.3065E-03  0.2889E-02  0.4850E-03
      2.515  0.6313E-03  0.6392E-02  0.1048E-02
      2.570  0.9228E-03  0.9821E-02  0.1573E-02
      2.626  0.1033E-02  0.1149E-01  0.1801E-02
      2.681  0.9008E-03  0.1048E-01  0.1607E-02
      2.736  0.5998E-03  0.7346E-02  0.1099E-02
      2.792  0.2807E-03  0.3710E-02  0.5363E-03
      2.847  0.5952E-04  0.1000E-02  0.1309E-03
      2.902 -0.3837E-04 -0.3174E-03 -0.5810E-04
      2.958 -0.5317E-04 -0.6036E-03 -0.9365E-04
      3.013 -0.3612E-04 -0.4441E-03 -0.6634E-04
      3.069 -0.1770E-04 -0.2287E-03 -0.3340E-04
      3.124 -0.6829E-05 -0.9173E-04 -0.1317E-04
      3.179 -0.2146E-05 -0.2984E-04 -0.4219E-05
      3.235 -0.5594E-06 -0.8022E-05 -0.1119E-05
      3.290 -0.1221E-06 -0.1802E-05 -0.2484E-06
      3.346 -0.2246E-07 -0.3407E-06 -0.4643E-07
      3.401 -0.3497E-08 -0.5444E-07 -0.7341E-08
      3.456 -0.4623E-09 -0.7376E-08 -0.9848E-09
      3.512 -0.5200E-10 -0.8492E-09 -0.1123E-09
      3.567 -0.4986E-11 -0.8323E-10 -0.1092E-10
      3.622 -0.4079E-12 -0.6954E-11 -0.9048E-12
      3.678 -0.2851E-13 -0.4958E-12 -0.6402E-13
      3.733 -0.1703E-14 -0.3019E-13 -0.3870E-14
      3.789 -0.8700E-16 -0.1567E-14 -0.1997E-15
      3.844 -0.4529E-17 -0.7956E-16 -0.1023E-16
      3.899  0.0000E+00  0.0000E+00  0.0000E+00
      3.955  0.0000E+00  0.0000E+00  0.0000E+00
      4.010  0.0000E+00  0.0000E+00  0.0000E+00
      4.065  0.0000E+00  0.0000E+00  0.0000E+00
      4.121  0.0000E+00  0.0000E+00  0.0000E+00
      4.176  0.0000E+00  0.0000E+00  0.0000E+00
      4.232  0.0000E+00  0.0000E+00  0.0000E+00
      4.287  0.0000E+00  0.0000E+00  0.0000E+00
      4.342  0.0000E+00  0.0000E+00  0.0000E+00
      4.398  0.0000E+00  0.0000E+00  0.0000E+00
      4.453  0.0000E+00  0.0000E+00  0.0000E+00
      4.508  0.0000E+00  0.0000E+00  0.0000E+00
      4.564  0.0000E+00  0.0000E+00  0.0000E+00
      4.619  0.0000E+00  0.0000E+00  0.0000E+00
      4.61922668    -11.99455226  301     -0.32755821      1.00000000
    -11.995  0.0000E+00  0.0000E+00  0.0000E+00
    -11.939  0.0000E+00  0.0000E+00  0.0000E+00
    -11.884  0.0000E+00  0.0000E+00  0.0000E+00
    -11.828  0.0000E+00  0.0000E+00  0.0000E+00
    -11.773  0.0000E+00  0.0000E+00  0.0000E+00
    -11.718  0.0000E+00  0.0000E+00  0.0000E+00
    -11.662  0.0000E+00  0.0000E+00  0.0000E+00
    -11.607 -0.1054E-29 -0.9731E-31 -0.1515E-31
    -11.552 -0.8081E-28 -0.7464E-29 -0.1162E-29
    -11.496 -0.5369E-26 -0.4959E-27 -0.7720E-28
    -11.441 -0.3054E-24 -0.2821E-25 -0.4392E-26
    -11.385 -0.1488E-22 -0.1374E-23 -0.2140E-24
    -11.330 -0.6204E-21 -0.5731E-22 -0.8923E-23
    -11.275 -0.2214E-19 -0.2046E-20 -0.3185E-21
    -11.219 -0.6762E-18 -0.6248E-19 -0.9731E-20
    -11.164 -0.1724E-16 -0.1593E-17 -0.2481E-18
    -11.108 -0.3822E-15 -0.3533E-16 -0.5505E-17
    -11.053 -0.7276E-14 -0.6726E-15 -0.1049E-15
    -10.998 -0.1183E-12 -0.1094E-13 -0.1707E-14
    -10.942 -0.1642E-11 -0.1519E-12 -0.2373E-13
    -10.887 -0.1945E-10 -0.1801E-11 -0.2817E-12
    -10.832 -0.1964E-09 -0.1821E-10 -0.2854E-11
    -10.776 -0.1690E-08 -0.1569E-09 -0.2468E-10
    -10.721 -0.1237E-07 -0.1152E-08 -0.1820E-09
    -10.665 -0.7708E-07 -0.7202E-08 -0.1146E-08
    -10.610 -0.4080E-06 -0.3833E-07 -0.6156E-08
    -10.555 -0.1833E-05 -0.1735E-06 -0.2825E-07
    -10.499 -0.6980E-05 -0.6682E-06 -0.1108E-06
    -10.444 -0.2248E-04 -0.2186E-05 -0.3719E-06
    -10.389 -0.6093E-04 -0.6057E-05 -0.1066E-05
    -10.333 -0.1377E-03 -0.1411E-04 -0.2593E-05
    -10.278 -0.2526E-03 -0.2704E-04 -0.5255E-05
    -10.222 -0.3498E-03 -0.4015E-04 -0.8458E-05
    -10.167 -0.2620E-03 -0.3667E-04 -0.9276E-05
    -10.112  0.3129E-03  0.1640E-04 -0.1340E-05
    -10.056  0.1717E-02  0.1592E-03  0.2351E-04
    -10.001  0.4061E-02  0.4082E-03  0.6913E-04
     -9.946  0.6907E-02  0.7206E-03  0.1287E-03
     -9.890  0.9266E-02  0.9981E-03  0.1881E-03
     -9.835  0.1018E-01  0.1159E-02  0.2428E-03
     -9.779  0.9496E-02  0.1218E-02  0.3095E-03
     -9.724  0.8019E-02  0.1274E-02  0.4083E-03
     -9.669  0.6730E-02  0.1384E-02  0.5252E-03
     -9.613  0.5930E-02  0.1475E-02  0.6007E-03
     -9.558  0.5274E-02  0.1419E-02  0.5746E-03
     -9.502  0.4539E-02  0.1182E-02  0.4480E-03
     -9.447  0.4105E-02  0.8896E-03  0.2961E-03
     -9.392  0.4528E-02  0.7216E-03  0.2161E-03
     -9.336  0.5737E-02  0.7587E-03  0.2605E-03
     -9.281  0.6825E-02  0.9347E-03  0.4075E-03
     -9.226  0.6812E-02  0.1114E-02  0.5837E-03
     -9.170  0.5781E-02  0.1225E-02  0.7221E-03
     -9.115  0.5381E-02  0.1358E-02  0.8263E-03
     -9.059  0.8016E-02  0.1740E-02  0.9903E-03
     -9.004  0.1495E-01  0.2545E-02  0.1324E-02
     -8.949  0.2457E-01  0.3646E-02  0.1812E-02
     -8.893  0.3257E-01  0.4557E-02  0.2262E-02
     -8.838  0.3476E-01  0.4764E-02  0.2444E-02
     -8.783  0.3039E-01  0.4199E-02  0.2343E-02
     -8.727  0.2288E-01  0.3353E-02  0.2218E-02
     -8.672  0.1707E-01  0.2850E-02  0.2375E-02
     -8.616  0.1555E-01  0.2925E-02  0.2883E-02
     -8.561  0.1771E-01  0.3335E-02  0.3560E-02
     -8.506  0.2144E-01  0.3746E-02  0.4204E-02
     -8.450  0.2546E-01  0.4081E-02  0.4777E-02
     -8.395  0.2997E-01  0.4492E-02  0.5335E-02
     -8.340  0.3573E-01  0.5079E-02  0.5856E-02
     -8.284  0.4284E-01  0.5712E-02  0.6176E-02
     -8.229  0.5016E-01  0.6109E-02  0.6097E-02
     -8.173  0.5560E-01  0.6060E-02  0.5562E-02
     -8.118  0.5716E-01  0.5582E-02  0.4781E-02
     -8.063  0.5428E-01  0.4954E-02  0.4250E-02
     -8.007  0.4939E-01  0.4647E-02  0.4664E-02
     -7.952  0.4830E-01  0.5142E-02  0.6695E-02
     -7.896  0.5835E-01  0.6689E-02  0.1066E-01
     -7.841  0.8414E-01  0.9117E-02  0.1626E-01
     -7.786  0.1233E+00  0.1189E-01  0.2253E-01
     -7.730  0.1653E+00  0.1438E-01  0.2828E-01
     -7.675  0.1958E+00  0.1613E-01  0.3262E-01
     -7.620  0.2042E+00  0.1698E-01  0.3575E-01
     -7.564  0.1902E+00  0.1714E-01  0.3920E-01
     -7.509  0.1644E+00  0.1713E-01  0.4538E-01
     -7.453  0.1413E+00  0.1761E-01  0.5620E-01
     -7.398  0.1301E+00  0.1899E-01  0.7152E-01
     -7.343  0.1306E+00  0.2112E-01  0.8870E-01
     -7.287  0.1359E+00  0.2351E-01  0.1039E+00
     -7.232  0.1389E+00  0.2574E-01  0.1143E+00
     -7.177  0.1371E+00  0.2765E-01  0.1195E+00
     -7.121  0.1333E+00  0.2931E-01  0.1217E+00
     -7.066  0.1331E+00  0.3081E-01  0.1234E+00