  64  64   1   0
  0.4416634E+02  0.1104003E-08  0.1104984E-08  0.2676336E-08  0.1000000E-15
  1.000000000000000E-004
  CAR 
 unknown system                          
      6.13571452    -11.67063212  301     -1.29548253      1.00000000
    -11.671  0.0000E+00  0.0000E+00
    -11.611  0.0000E+00  0.0000E+00
    -11.552  0.0000E+00  0.0000E+00
    -11.493  0.0000E+00  0.0000E+00
    -11.433  0.0000E+00  0.0000E+00
    -11.374  0.0000E+00  0.0000E+00
    -11.315 -0.1116E-30 -0.6623E-32
    -11.255 -0.1283E-28 -0.7684E-30
    -11.196 -0.1245E-26 -0.7467E-28
    -11.136 -0.1011E-24 -0.6073E-26
    -11.077 -0.6866E-23 -0.4136E-24
    -11.018 -0.3902E-21 -0.2357E-22
    -10.958 -0.1855E-19 -0.1125E-20
    -10.899 -0.7377E-18 -0.4491E-19
    -10.840 -0.2394E-16 -0.1466E-17
    -10.780 -0.6598E-15 -0.4063E-16
    -10.721 -0.1526E-13 -0.9462E-15
    -10.662 -0.2946E-12 -0.1843E-13
    -10.602 -0.4746E-11 -0.3001E-12
    -10.543 -0.6376E-10 -0.4085E-11
    -10.484 -0.7140E-09 -0.4647E-10
    -10.424 -0.6662E-08 -0.4419E-09
    -10.365 -0.5175E-07 -0.3514E-08
    -10.305 -0.3347E-06 -0.2338E-07
    -10.246 -0.1801E-05 -0.1303E-06
    -10.187 -0.8059E-05 -0.6086E-06
    -10.127 -0.2993E-04 -0.2385E-05
    -10.068 -0.9185E-04 -0.7837E-05
    -10.009 -0.2302E-03 -0.2150E-04
     -9.949 -0.4567E-03 -0.4861E-04
     -9.890 -0.6548E-03 -0.8747E-04
     -9.831 -0.4299E-03 -0.1130E-03
     -9.771  0.9204E-03 -0.5836E-04
     -9.712  0.4032E-02  0.1809E-03
     -9.653  0.8693E-02  0.6969E-03
     -9.593  0.1343E-01  0.1494E-02
     -9.534  0.1646E-01  0.2471E-02
     -9.475  0.1756E-01  0.3513E-02
     -9.415  0.1842E-01  0.4607E-02
     -9.356  0.2057E-01  0.5827E-02
     -9.296  0.2303E-01  0.7195E-02
     -9.237  0.2332E-01  0.8579E-02
     -9.178  0.2037E-01  0.9788E-02
     -9.118  0.1595E-01  0.1073E-01
     -9.059  0.1315E-01  0.1151E-01
     -9.000  0.1405E-01  0.1235E-01
     -8.940  0.1885E-01  0.1347E-01
     -8.881  0.2616E-01  0.1502E-01
     -8.822  0.3342E-01  0.1700E-01
     -8.762  0.3770E-01  0.1924E-01
     -8.703  0.3737E-01  0.2146E-01
     -8.644  0.3336E-01  0.2344E-01
     -8.584  0.2817E-01  0.2511E-01
     -8.525  0.2323E-01  0.2649E-01
     -8.465  0.1851E-01  0.2759E-01
     -8.406  0.1500E-01  0.2848E-01
     -8.347  0.1597E-01  0.2943E-01
     -8.287  0.2403E-01  0.3085E-01
     -8.228  0.3727E-01  0.3307E-01
     -8.169  0.4951E-01  0.3600E-01
     -8.109  0.5517E-01  0.3928E-01
     -8.050  0.5344E-01  0.4245E-01
     -7.991  0.4802E-01  0.4530E-01
     -7.931  0.4399E-01  0.4791E-01
     -7.872  0.4501E-01  0.5058E-01
     -7.813  0.5197E-01  0.5367E-01
     -7.753  0.6299E-01  0.5741E-01
     -7.694  0.7457E-01  0.6183E-01
     -7.635  0.8363E-01  0.6680E-01
     -7.575  0.8923E-01  0.7209E-01
     -7.516  0.9335E-01  0.7763E-01
     -7.456  0.1004E+00  0.8359E-01
     -7.397  0.1151E+00  0.9042E-01
     -7.338  0.1388E+00  0.9866E-01
     -7.278  0.1680E+00  0.1086E+00
     -7.219  0.1959E+00  0.1203E+00
     -7.160  0.2160E+00  0.1331E+00
     -7.100  0.2265E+00  0.1465E+00
     -7.041  0.2303E+00  0.1602E+00
     -6.982  0.2330E+00  0.1740E+00
     -6.922  0.2406E+00  0.1883E+00
     -6.863  0.2580E+00  0.2036E+00
     -6.804  0.2861E+00  0.2206E+00
     -6.744  0.3207E+00  0.2396E+00
     -6.685  0.3540E+00  0.2606E+00
     -6.626  0.3811E+00  0.2833E+00
     -6.566  0.4030E+00  0.3072E+00
     -6.507  0.4240E+00  0.3323E+00
     -6.447  0.4457E+00  0.3588E+00
     -6.388  0.4658E+00  0.3865E+00
     -6.329  0.4805E+00  0.4150E+00
     -6.269  0.4869E+00  0.4439E+00
     -6.210  0.4842E+00  0.4726E+00
     -6.151  0.4730E+00  0.5007E+00
     -6.091  0.4561E+00  0.5278E+00
     -6.032  0.4375E+00  0.5537E+00
     -5.973  0.4202E+00  0.5787E+00
     -5.913  0.4058E+00  0.6027E+00
     -5.854  0.3958E+00  0.6262E+00
     -5.795  0.3938E+00  0.6496E+00
     -5.735  0.4039E+00  0.6736E+00
     -5.676  0.4245E+00  0.6988E+00
     -5.616  0.4462E+00  0.7253E+00
     -5.557  0.4570E+00  0.7524E+00
     -5.498  0.4515E+00  0.7792E+00
     -5.438  0.4331E+00  0.8049E+00
     -5.379  0.4108E+00  0.8293E+00
     -5.320  0.3936E+00  0.8526E+00
     -5.260  0.3878E+00  0.8757E+00
     -5.201  0.3948E+00  0.8991E+00
     -5.142  0.4094E+00  0.9234E+00
     -5.082  0.4237E+00  0.9485E+00
     -5.023  0.4335E+00  0.9743E+00
     -4.964  0.4417E+00  0.1000E+01
     -4.904  0.4549E+00  0.1027E+01
     -4.845  0.4758E+00  0.1056E+01
     -4.786  0.4998E+00  0.1085E+01
     -4.726  0.5211E+00  0.1116E+01
     -4.667  0.5383E+00  0.1148E+01
     -4.607  0.5543E+00  0.1181E+01
     -4.548  0.5710E+00  0.1215E+01
     -4.489  0.5854E+00  0.1250E+01
     -4.429  0.5937E+00  0.1285E+01
     -4.370  0.5970E+00  0.1320E+01
     -4.311  0.6030E+00  0.1356E+01
     -4.251  0.6215E+00  0.1393E+01
     -4.192  0.6563E+00  0.1432E+01
     -4.133  0.7015E+00  0.1474E+01
     -4.073  0.7447E+00  0.1518E+01
     -4.014  0.7740E+00  0.1564E+01
     -3.955  0.7851E+00  0.1610E+01
     -3.895  0.7814E+00  0.1657E+01
     -3.836  0.7679E+00  0.1702E+01
     -3.776  0.7448E+00  0.1747E+01
     -3.717  0.7086E+00  0.1789E+01
     -3.658  0.6573E+00  0.1828E+01
     -3.598  0.5940E+00  0.1863E+01
     -3.539  0.5252E+00  0.1894E+01
     -3.480  0.4614E+00  0.1922E+01
     -3.420  0.4181E+00  0.1946E+01
     -3.361  0.4111E+00  0.1971E+01
     -3.302  0.4460E+00  0.1997E+01
     -3.242  0.5107E+00  0.2028E+01
     -3.183  0.5811E+00  0.2062E+01
     -3.124  0.6343E+00  0.2100E+01
     -3.064  0.6568E+00  0.2139E+01
     -3.005  0.6453E+00  0.2177E+01
     -2.946  0.6060E+00  0.2213E+01
     -2.886  0.5538E+00  0.2246E+01
     -2.827  0.5062E+00  0.2276E+01
     -2.767  0.4742E+00  0.2304E+01
     -2.708  0.4579E+00  0.2331E+01
     -2.649  0.4543E+00  0.2358E+01
     -2.589  0.4655E+00  0.2386E+01
     -2.530  0.4966E+00  0.2415E+01
     -2.471  0.5453E+00  0.2448E+01
     -2.411  0.5993E+00  0.2483E+01
     -2.352  0.6467E+00  0.2522E+01
     -2.293  0.6815E+00  0.2562E+01
     -2.233  0.6991E+00  0.2604E+01
     -2.174  0.6924E+00  0.2645E+01
     -2.115  0.6575E+00  0.2684E+01
     -2.055  0.6023E+00  0.2719E+01
     -1.996  0.5461E+00  0.2752E+01
     -1.936  0.5112E+00  0.2782E+01
     -1.877  0.5125E+00  0.2813E+01
     -1.818  0.5503E+00  0.2845E+01
     -1.758  0.6093E+00  0.2881E+01
     -1.699  0.6646E+00  0.2921E+01
     -1.640  0.6948E+00  0.2962E+01
     -1.580  0.6960E+00  0.3003E+01
     -1.521  0.6845E+00  0.3044E+01
     -1.462  0.6815E+00  0.3084E+01
     -1.402  0.6926E+00  0.3126E+01
     -1.343  0.7016E+00  0.3167E+01
     -1.284  0.6875E+00  0.3208E+01
     -1.224  0.6439E+00  0.3246E+01
     -1.165  0.5813E+00  0.3281E+01
     -1.106  0.5135E+00  0.3311E+01
     -1.046  0.4443E+00  0.3338E+01
     -0.987  0.3691E+00  0.3359E+01
     -0.927  0.2859E+00  0.3376E+01
     -0.868  0.2008E+00  0.3388E+01
     -0.809  0.1261E+00  0.3396E+01
     -0.749  0.7391E-01  0.3400E+01
     -0.690  0.5014E-01  0.3403E+01
     -0.631  0.5250E-01  0.3406E+01
     -0.571  0.7054E-01  0.3411E+01
     -0.512  0.8956E-01  0.3416E+01
     -0.453  0.9821E-01  0.3422E+01
     -0.393  0.9489E-01  0.3427E+01
     -0.334  0.8680E-01  0.3432E+01
     -0.275  0.8268E-01  0.3437E+01
     -0.215  0.8609E-01  0.3442E+01
     -0.156  0.9428E-01  0.3448E+01
     -0.097  0.1021E+00  0.3454E+01
     -0.037  0.1071E+00  0.3460E+01
      0.022  0.1111E+00  0.3467E+01
      0.082  0.1174E+00  0.3474E+01
      0.141  0.1261E+00  0.3482E+01
      0.200  0.1330E+00  0.3489E+01
      0.260  0.1336E+00  0.3497E+01
      0.319  0.1263E+00  0.3505E+01
      0.378  0.1121E+00  0.3512E+01
      0.438  0.9262E-01  0.3517E+01
      0.497  0.6985E-01  0.3521E+01
      0.556  0.4775E-01  0.3524E+01
      0.616  0.3195E-01  0.3526E+01
      0.675  0.2732E-01  0.3528E+01
      0.734  0.3571E-01  0.3530E+01
      0.794  0.5507E-01  0.3533E+01
      0.853  0.7982E-01  0.3538E+01
      0.913  0.1028E+00  0.3544E+01
      0.972  0.1187E+00  0.3551E+01
      1.031  0.1264E+00  0.3558E+01
      1.091  0.1288E+00  0.3566E+01
      1.150  0.1302E+00  0.3574E+01
      1.209  0.1319E+00  0.3581E+01
      1.269  0.1318E+00  0.3589E+01
      1.328  0.1271E+00  0.3597E+01
      1.387  0.1185E+00  0.3604E+01
      1.447  0.1101E+00  0.3610E+01
      1.506  0.1055E+00  0.3617E+01
      1.565  0.1027E+00  0.3623E+01
      1.625  0.9665E-01  0.3629E+01
      1.684  0.8581E-01  0.3634E+01
      1.743  0.7588E-01  0.3638E+01
      1.803  0.7403E-01  0.3643E+01
      1.862  0.8013E-01  0.3647E+01
      1.922  0.8556E-01  0.3652E+01
      1.981  0.8218E-01  0.3657E+01
      2.040  0.7180E-01  0.3661E+01
      2.100  0.6515E-01  0.3665E+01
      2.159  0.7145E-01  0.3670E+01
      2.218  0.8986E-01  0.3675E+01
      2.278  0.1108E+00  0.3682E+01
      2.337  0.1239E+00  0.3689E+01
      2.396  0.1246E+00  0.3696E+01
      2.456  0.1150E+00  0.3703E+01
      2.515  0.1005E+00  0.3709E+01
      2.574  0.8590E-01  0.3714E+01
      2.634  0.7424E-01  0.3719E+01
      2.693  0.6900E-01  0.3723E+01
      2.753  0.7387E-01  0.3727E+01
      2.812  0.8929E-01  0.3732E+01
      2.871  0.1093E+00  0.3739E+01
      2.931  0.1238E+00  0.3746E+01
      2.990  0.1256E+00  0.3754E+01
      3.049  0.1162E+00  0.3761E+01
      3.109  0.1037E+00  0.3767E+01
      3.168  0.9642E-01  0.3772E+01
      3.227  0.9606E-01  0.3778E+01
      3.287  0.9754E-01  0.3784E+01
      3.346  0.9406E-01  0.3789E+01
      3.405  0.8313E-01  0.3794E+01
      3.465  0.6885E-01  0.3798E+01
      3.524  0.5822E-01  0.3802E+01
      3.583  0.5464E-01  0.3805E+01
      3.643  0.5534E-01  0.3808E+01
      3.702  0.5596E-01  0.3812E+01
      3.762  0.5679E-01  0.3815E+01
      3.821  0.6202E-01  0.3819E+01
      3.880  0.7237E-01  0.3823E+01
      3.940  0.8091E-01  0.3828E+01
      3.999  0.7864E-01  0.3833E+01
      4.058  0.6324E-01  0.3836E+01
      4.118  0.4088E-01  0.3839E+01
      4.177  0.2027E-01  0.3840E+01
      4.236  0.6493E-02  0.3840E+01
      4.296 -0.2134E-03  0.3840E+01
      4.355 -0.2186E-02  0.3840E+01
      4.414 -0.1956E-02  0.3840E+01
      4.474 -0.1172E-02  0.3840E+01
      4.533 -0.5445E-03  0.3840E+01
      4.592 -0.2045E-03  0.3840E+01
      4.652 -0.6312E-04  0.3840E+01
      4.711 -0.1611E-04  0.3840E+01
      4.771 -0.3416E-05  0.3840E+01
      4.830 -0.6029E-06  0.3840E+01
      4.889 -0.8872E-07  0.3840E+01
      4.949 -0.1090E-07  0.3840E+01
      5.008 -0.1118E-08  0.3840E+01
      5.067 -0.9594E-10  0.3840E+01
      5.127 -0.6884E-11  0.3840E+01
      5.186 -0.4134E-12  0.3840E+01
      5.245 -0.2077E-13  0.3840E+01
      5.305 -0.8745E-15  0.3840E+01
      5.364 -0.3040E-16  0.3840E+01
      5.423  0.0000E+00  0.3840E+01
      5.483  0.0000E+00  0.3840E+01
      5.542  0.0000E+00  0.3840E+01
      5.602  0.0000E+00  0.3840E+01
      5.661  0.0000E+00  0.3840E+01
      5.720  0.0000E+00  0.3840E+01
      5.780  0.0000E+00  0.3840E+01
      5.839  0.0000E+00  0.3840E+01
      5.898  0.0000E+00  0.3840E+01
      5.958  0.0000E+00  0.3840E+01
      6.017  0.0000E+00  0.3840E+01
      6.076  0.0000E+00  0.3840E+01
      6.136  0.0000E+00  0.3840E+01
      6.13571452    -11.67063212  301     -1.29548253      1.00000000
    -11.671  0.0000E+00  0.0000E+00  0.0000E+00
    -11.611  0.0000E+00  0.0000E+00  0.0000E+00
    -11.552  0.0000E+00  0.0000E+00  0.0000E+00
    -11.493  0.0000E+00  0.0000E+00  0.0000E+00
    -11.433  0.0000E+00  0.0000E+00  0.0000E+00
    -11.374  0.0000E+00  0.0000E+00  0.0000E+00
    -11.315 -0.1530E-30 -0.1099E-31 -0.5307E-32
    -11.255 -0.1760E-28 -0.1264E-29 -0.6104E-30
    -11.196 -0.1707E-26 -0.1226E-27 -0.5922E-28
    -11.136 -0.1386E-24 -0.9952E-26 -0.4807E-26
    -11.077 -0.9415E-23 -0.6760E-24 -0.3266E-24
    -11.018 -0.5351E-21 -0.3843E-22 -0.1856E-22
    -10.958 -0.2544E-19 -0.1827E-20 -0.8826E-21
    -10.899 -0.1012E-17 -0.7265E-19 -0.3510E-19
    -10.840 -0.3283E-16 -0.2358E-17 -0.1139E-17
    -10.780 -0.9048E-15 -0.6501E-16 -0.3140E-16
    -10.721 -0.2092E-13 -0.1503E-14 -0.7263E-15
    -10.662 -0.4040E-12 -0.2904E-13 -0.1403E-13
    -10.602 -0.6508E-11 -0.4682E-12 -0.2262E-12
    -10.543 -0.8743E-10 -0.6296E-11 -0.3042E-11
    -10.484 -0.9791E-09 -0.7059E-10 -0.3411E-10
    -10.424 -0.9133E-08 -0.6598E-09 -0.3189E-09
    -10.365 -0.7095E-07 -0.5140E-08 -0.2485E-08
    -10.305 -0.4588E-06 -0.3337E-07 -0.1613E-07
    -10.246 -0.2468E-05 -0.1806E-06 -0.8733E-07
    -10.187 -0.1104E-04 -0.8140E-06 -0.3940E-06
    -10.127 -0.4099E-04 -0.3055E-05 -0.1480E-05
    -10.068 -0.1257E-03 -0.9506E-05 -0.4608E-05
    -10.009 -0.3149E-03 -0.2425E-04 -0.1177E-04
     -9.949 -0.6243E-03 -0.4929E-04 -0.2397E-04
     -9.890 -0.8940E-03 -0.7342E-04 -0.3583E-04
     -9.831 -0.5839E-03 -0.5508E-04 -0.2729E-04
     -9.771  0.1265E-02  0.8275E-04  0.3880E-04
     -9.712  0.5520E-02  0.4127E-03  0.1973E-03
     -9.653  0.1189E-01  0.9164E-03  0.4391E-03
     -9.593  0.1835E-01  0.1438E-02  0.6900E-03
     -9.534  0.2246E-01  0.1797E-02  0.8673E-03
     -9.475  0.2391E-01  0.1995E-02  0.9800E-03
     -9.415  0.2508E-01  0.2240E-02  0.1136E-02
     -9.356  0.2801E-01  0.2678E-02  0.1398E-02
     -9.296  0.3136E-01  0.3128E-02  0.1664E-02
     -9.237  0.3165E-01  0.3242E-02  0.1746E-02
     -9.178  0.2758E-01  0.2906E-02  0.1589E-02
     -9.118  0.2204E-01  0.2423E-02  0.1363E-02
     -9.059  0.1957E-01  0.2273E-02  0.1366E-02
     -9.000  0.2271E-01  0.2762E-02  0.1868E-02
     -8.940  0.3074E-01  0.3880E-02  0.3020E-02
     -8.881  0.4093E-01  0.5348E-02  0.4773E-02
     -8.822  0.5006E-01  0.6715E-02  0.6755E-02
     -8.762  0.5509E-01  0.7488E-02  0.8329E-02
     -8.703  0.5411E-01  0.7395E-02  0.8998E-02
     -8.644  0.4768E-01  0.6603E-02  0.8789E-02
     -8.584  0.3838E-01  0.5551E-02  0.8060E-02
     -8.525  0.2854E-01  0.4501E-02  0.6988E-02
     -8.465  0.1991E-01  0.3470E-02  0.5665E-02
     -8.406  0.1624E-01  0.2647E-02  0.4842E-02
     -8.347  0.2350E-01  0.2617E-02  0.5986E-02
     -8.287  0.4419E-01  0.3851E-02  0.9953E-02
     -8.228  0.7132E-01  0.6032E-02  0.1561E-01
     -8.169  0.9131E-01  0.8117E-02  0.2037E-01
     -8.109  0.9535E-01  0.9180E-02  0.2232E-01
     -8.050  0.8708E-01  0.9125E-02  0.2176E-01
     -7.991  0.7805E-01  0.8585E-02  0.2082E-01
     -7.931  0.7701E-01  0.8274E-02  0.2200E-01
     -7.872  0.8492E-01  0.8563E-02  0.2721E-01
     -7.813  0.9776E-01  0.9492E-02  0.3684E-01
     -7.753  0.1107E+00  0.1091E-01  0.4914E-01
     -7.694  0.1193E+00  0.1247E-01  0.6070E-01
     -7.635  0.1217E+00  0.1370E-01  0.6877E-01
     -7.575  0.1208E+00  0.1429E-01  0.7380E-01
     -7.516  0.1253E+00  0.1445E-01  0.8023E-01
     -7.456  0.1437E+00  0.1506E-01  0.9452E-01
     -7.397  0.1748E+00  0.1712E-01  0.1214E+00
     -7.338  0.2055E+00  0.2086E-01  0.1599E+00
     -7.278  0.2199E+00  0.2525E-01  0.2030E+00
     -7.219  0.2122E+00  0.2857E-01  0.2401E+00
     -7.160  0.1914E+00  0.2972E-01  0.2630E+00
     -7.100  0.1742E+00  0.2918E-01  0.2708E+00
     -7.041  0.1721E+00  0.2857E-01  0.2716E+00
     -6.982  0.1847E+00  0.2937E-01  0.2811E+00
     -6.922  0.2028E+00  0.3195E-01  0.3175E+00
     -6.863  0.2166E+00  0.3567E-01  0.3924E+00
     -6.804  0.2216E+00  0.3973E-01  0.5011E+00
     -6.744  0.2174E+00  0.4377E-01  0.6182E+00
     -6.685  0.2052E+00  0.4773E-01  0.7107E+00
     -6.626  0.1870E+00  0.5157E-01  0.7626E+00
     -6.566  0.1663E+00  0.5515E-01  0.7879E+00
     -6.507  0.1481E+00  0.5832E-01  0.8165E+00
     -6.447  0.1360E+00  0.6078E-01  0.8683E+00
     -6.388  0.1302E+00  0.6216E-01  0.9409E+00
     -6.329  0.1268E+00  0.6216E-01  0.1015E+01
     -6.269  0.1210E+00  0.6083E-01  0.1067E+01
     -6.210  0.1109E+00  0.5853E-01  0.1080E+01
     -6.151  0.9799E-01  0.5573E-01  0.1051E+01
     -6.091  0.8532E-01  0.5273E-01  0.9889E+00
     -6.032  0.7516E-01  0.4956E-01  0.9073E+00
     -5.973  0.6795E-01  0.4607E-01  0.8183E+00
     -5.913  0.6233E-01  0.4220E-01  0.7393E+00
     -5.854  0.5629E-01  0.3838E-01  0.6981E+00
     -5.795  0.4905E-01  0.3589E-01  0.7255E+00
     -5.735  0.4180E-01  0.3632E-01  0.8317E+00
     -5.676  0.3654E-01  0.4028E-01  0.9872E+00
     -5.616  0.3403E-01  0.4630E-01  0.1129E+01
     -5.557  0.3330E-01  0.5143E-01  0.1199E+01
     -5.498  0.3280E-01  0.5321E-01  0.1175E+01
     -5.438  0.3157E-01  0.5126E-01  0.1088E+01
     -5.379  0.2964E-01  0.4703E-01  0.9881E+00
     -5.320  0.2770E-01  0.4248E-01  0.9177E+00
     -5.260  0.2678E-01  0.3880E-01  0.8914E+00
     -5.201  0.2760E-01  0.3595E-01  0.8986E+00
     -5.142  0.2968E-01  0.3314E-01  0.9162E+00
     -5.082  0.3112E-01  0.2971E-01  0.9248E+00
     -5.023  0.2987E-01  0.2589E-01  0.9246E+00
     -4.964  0.2558E-01  0.2266E-01  0.9375E+00
     -4.904  0.2022E-01  0.2116E-01  0.9886E+00
     -4.845  0.1690E-01  0.2202E-01  0.1081E+01
     -4.786  0.1824E-01  0.2534E-01  0.1191E+01
     -4.726  0.2499E-01  0.3101E-01  0.1293E+01
     -4.667  0.3551E-01  0.3867E-01  0.1383E+01
     -4.607  0.4597E-01  0.4702E-01  0.1466E+01
     -4.548  0.5214E-01  0.5366E-01  0.1534E+01
     -4.489  0.5207E-01  0.5625E-01  0.1562E+01
     -4.429  0.4777E-01  0.5451E-01  0.1539E+01
     -4.370  0.4385E-01  0.5086E-01  0.1501E+01
     -4.311  0.4408E-01  0.4881E-01  0.1518E+01
     -4.251  0.4858E-01  0.5071E-01  0.1645E+01
     -4.192  0.5463E-01  0.5671E-01  0.1875E+01
     -4.133  0.5970E-01  0.6535E-01  0.2131E+01
     -4.073  0.6338E-01  0.7463E-01  0.2315E+01
     -4.014  0.6633E-01  0.8256E-01  0.2366E+01
     -3.955  0.6823E-01  0.8750E-01  0.2292E+01
     -3.895  0.6779E-01  0.8872E-01  0.2143E+01
     -3.836  0.6466E-01  0.8693E-01  0.1969E+01
     -3.776  0.6023E-01  0.8383E-01  0.1797E+01
     -3.717  0.5611E-01  0.8091E-01  0.1636E+01
     -3.658  0.5253E-01  0.7853E-01  0.1498E+01
     -3.598  0.4862E-01  0.7588E-01  0.1388E+01
     -3.539  0.4413E-01  0.7201E-01  0.1298E+01
     -3.480  0.4034E-01  0.6754E-01  0.1209E+01
     -3.420  0.3922E-01  0.6552E-01  0.1121E+01
     -3.361  0.4148E-01  0.6930E-01  0.1063E+01
     -3.302  0.4553E-01  0.7886E-01  0.1074E+01
     -3.242  0.4832E-01  0.8975E-01  0.1166E+01
     -3.183  0.4770E-01  0.9609E-01  0.1311E+01
     -3.124  0.4404E-01  0.9459E-01  0.1456E+01
     -3.064  0.3960E-01  0.8609E-01  0.1547E+01
     -3.005  0.3653E-01  0.7424E-01  0.1559E+01
     -2.946  0.3518E-01  0.6306E-01  0.1505E+01
     -2.886  0.3424E-01  0.5491E-01  0.1423E+01
     -2.827  0.3222E-01  0.4986E-01  0.1349E+01
     -2.767  0.2885E-01  0.4671E-01  0.1289E+01
     -2.708  0.2526E-01  0.4485E-01  0.1234E+01
     -2.649  0.2299E-01  0.4550E-01  0.1183E+01
     -2.589  0.2284E-01  0.5043E-01  0.1164E+01
     -2.530  0.2447E-01  0.5876E-01  0.1209E+01
     -2.471  0.2699E-01  0.6581E-01  0.1332E+01
     -2.411  0.2983E-01  0.6645E-01  0.1510E+01
     -2.352  0.3303E-01  0.5999E-01  0.1709E+01
     -2.293  0.3677E-01  0.5112E-01  0.1893E+01
     -2.233  0.4112E-01  0.4618E-01  0.2025E+01
     -2.174  0.4626E-01  0.4830E-01  0.2069E+01
     -2.115  0.5215E-01  0.5538E-01  0.2008E+01
     -2.055  0.5733E-01  0.6170E-01  0.1856E+01
     -1.996  0.5878E-01  0.6209E-01  0.1656E+01
     -1.936  0.5427E-01  0.5608E-01  0.1473E+01
     -1.877  0.4519E-01  0.4824E-01  0.1373E+01
     -1.818  0.3604E-01  0.4417E-01  0.1397E+01
     -1.758  0.3060E-01  0.4568E-01  0.1525E+01
     -1.699  0.2893E-01  0.4967E-01  0.1687E+01
     -1.640  0.2829E-01  0.5131E-01  0.1806E+01
     -1.580  0.2645E-01  0.4827E-01  0.1859E+01
     -1.521  0.2405E-01  0.4212E-01  0.1883E+01
     -1.462  0.2379E-01  0.3659E-01  0.1936E+01
     -1.402  0.2756E-01  0.3446E-01  0.2017E+01
     -1.343  0.3417E-01  0.3569E-01  0.2057E+01
     -1.284  0.4007E-01  0.3800E-01  0.1981E+01
     -1.224  0.4233E-01  0.3901E-01  0.1792E+01
     -1.165  0.4105E-01  0.3808E-01  0.1570E+01
     -1.106  0.3879E-01  0.3628E-01  0.1395E+01
     -1.046  0.3778E-01  0.3480E-01  0.1269E+01
     -0.987  0.3786E-01  0.3368E-01  0.1132E+01
     -0.927  0.3697E-01  0.3202E-01  0.9315E+00
     -0.868  0.3320E-01  0.2934E-01  0.6773E+00
     -0.809  0.2667E-01  0.2641E-01  0.4267E+00
     -0.749  0.2016E-01  0.2490E-01  0.2361E+00
     -0.690  0.1797E-01  0.2618E-01  0.1306E+00
     -0.631  0.2309E-01  0.3025E-01  0.1021E+00
     -0.571  0.3418E-01  0.3547E-01  0.1211E+00
     -0.512  0.4537E-01  0.3933E-01  0.1508E+00
     -0.453  0.5020E-01  0.3997E-01  0.1651E+00
     -0.393  0.4651E-01  0.3763E-01  0.1601E+00
     -0.334  0.3763E-01  0.3461E-01  0.1506E+00
     -0.275  0.2932E-01  0.3370E-01  0.1530E+00
     -0.215  0.2561E-01  0.3623E-01  0.1710E+00
     -0.156  0.2707E-01  0.4131E-01  0.1955E+00
     -0.097  0.3185E-01  0.4707E-01  0.2138E+00
     -0.037  0.3795E-01  0.5313E-01  0.2194E+00
      0.022  0.4465E-01  0.6129E-01  0.2154E+00
      0.082  0.5202E-01  0.7310E-01  0.2089E+00
      0.141  0.5942E-01  0.8676E-01  0.2036E+00
      0.200  0.6459E-01  0.9722E-01  0.1977E+00
      0.260  0.6459E-01  0.9995E-01  0.1881E+00
      0.319  0.5785E-01  0.9408E-01  0.1740E+00
      0.378  0.4549E-01  0.8171E-01  0.1560E+00
      0.438  0.3084E-01  0.6539E-01  0.1336E+00
      0.497  0.1755E-01  0.4731E-01  0.1065E+00
      0.556  0.8033E-02  0.3039E-01  0.7732E-01
      0.616  0.2877E-02  0.1801E-01  0.5246E-01
      0.675  0.1477E-02  0.1241E-01  0.4019E-01
      0.734  0.2993E-02  0.1400E-01  0.4678E-01
      0.794  0.7026E-02  0.2239E-01  0.7267E-01
      0.853  0.1376E-01  0.3702E-01  0.1101E+00
      0.913  0.2371E-01  0.5627E-01  0.1453E+00
      0.972  0.3692E-01  0.7695E-01  0.1660E+00
      1.031  0.5183E-01  0.9542E-01  0.1682E+00
      1.091  0.6527E-01  0.1096E+00  0.1580E+00
      1.150  0.7414E-01  0.1195E+00  0.1459E+00
      1.209  0.7732E-01  0.1252E+00  0.1401E+00
      1.269  0.7552E-01  0.1259E+00  0.1422E+00
      1.328  0.6967E-01  0.1200E+00  0.1485E+00
      1.387  0.6046E-01  0.1087E+00  0.1548E+00
      1.447  0.4907E-01  0.9627E-01  0.1592E+00
      1.506  0.3759E-01  0.8604E-01  0.1609E+00
      1.565  0.2820E-01  0.7756E-01  0.1569E+00
      1.625  0.2233E-01  0.6857E-01  0.1433E+00
      1.684  0.2021E-01  0.6035E-01  0.1211E+00
      1.743  0.2082E-01  0.5857E-01  0.9925E-01
      1.803  0.2213E-01  0.6674E-01  0.8697E-01
      1.862  0.2218E-01  0.7969E-01  0.8495E-01
      1.922  0.2033E-01  0.8589E-01  0.8473E-01
      1.981  0.1764E-01  0.7810E-01  0.7848E-01
      2.040  0.1604E-01  0.6125E-01  0.6817E-01
      2.100  0.1730E-01  0.4855E-01  0.6393E-01
      2.159  0.2203E-01  0.4998E-01  0.7375E-01
      2.218  0.2906E-01  0.6485E-01  0.9533E-01
      2.278  0.3576E-01  0.8404E-01  0.1179E+00
      2.337  0.3976E-01  0.9755E-01  0.1304E+00
      2.396  0.4080E-01  0.1006E+00  0.1289E+00
      2.456  0.4080E-01  0.9483E-01  0.1164E+00
      2.515  0.4156E-01  0.8525E-01  0.9944E-01
      2.574  0.4246E-01  0.7576E-01  0.8421E-01
      2.634  0.4120E-01  0.6821E-01  0.7540E-01
      2.693  0.3683E-01  0.6489E-01  0.7679E-01
      2.753  0.3134E-01  0.6934E-01  0.8980E-01
      2.812  0.2778E-01  0.8277E-01  0.1104E+00
      2.871  0.2728E-01  0.1005E+00  0.1294E+00
      2.931  0.2855E-01  0.1142E+00  0.1372E+00
      2.990  0.2974E-01  0.1182E+00  0.1303E+00
      3.049  0.3021E-01  0.1132E+00  0.1126E+00
      3.109  0.3051E-01  0.1045E+00  0.9253E-01
      3.168  0.3110E-01  0.9621E-01  0.7755E-01
      3.227  0.3169E-01  0.8923E-01  0.7009E-01
      3.287  0.3151E-01  0.8201E-01  0.6721E-01
      3.346  0.3023E-01  0.7279E-01  0.6394E-01
      3.405  0.2839E-01  0.6137E-01  0.5775E-01
      3.465  0.2719E-01  0.5040E-01  0.5076E-01
      3.524  0.2719E-01  0.4448E-01  0.4733E-01
      3.583  0.2734E-01  0.4620E-01  0.4892E-01
      3.643  0.2562E-01  0.5253E-01  0.5172E-01
      3.702  0.2113E-01  0.5688E-01  0.5046E-01
      3.762  0.1528E-01  0.5551E-01  0.4410E-01
      3.821  0.1052E-01  0.5047E-01  0.3675E-01
      3.880  0.8041E-02  0.4572E-01  0.3265E-01
      3.940  0.7067E-02  0.4187E-01  0.3153E-01
      3.999  0.6107E-02  0.3628E-01  0.2965E-01
      4.058  0.4480E-02  0.2737E-01  0.2440E-01
      4.118  0.2563E-02  0.1684E-01  0.1656E-01
      4.177  0.1024E-02  0.7785E-02  0.8823E-02
      4.236  0.1541E-03  0.2050E-02  0.3232E-02
      4.296 -0.1672E-03 -0.5246E-03  0.2368E-03
      4.355 -0.1997E-03 -0.1118E-02 -0.8062E-03
      4.414 -0.1377E-03 -0.8792E-03 -0.8234E-03
      4.474 -0.7318E-04 -0.4937E-03 -0.5206E-03
      4.533 -0.3190E-04 -0.2194E-03 -0.2489E-03
      4.592 -0.1159E-04 -0.7961E-04 -0.9486E-04
      4.652 -0.3523E-05 -0.2388E-04 -0.2943E-04
      4.711 -0.8950E-06 -0.5952E-05 -0.7505E-05
      4.771 -0.1899E-06 -0.1236E-05 -0.1583E-05
      4.830 -0.3366E-07 -0.2142E-06 -0.2770E-06
      4.889 -0.4982E-08 -0.3102E-07 -0.4033E-07
      4.949 -0.6159E-09 -0.3756E-08 -0.4895E-08
      5.008 -0.6361E-10 -0.3805E-09 -0.4959E-09
      5.067 -0.5492E-11 -0.3228E-10 -0.4198E-10
      5.127 -0.3964E-12 -0.2293E-11 -0.2972E-11
      5.186 -0.2393E-13 -0.1365E-12 -0.1761E-12
      5.245 -0.1208E-14 -0.6802E-14 -0.8731E-14
      5.305 -0.5091E-16 -0.2851E-15 -0.3649E-15
      5.364 -0.1826E-17 -0.9517E-17 -0.1193E-16
      5.423  0.0000E+00  0.0000E+00  0.0000E+00
      5.483  0.0000E+00  0.0000E+00  0.0000E+00
      5.542  0.0000E+00  0.0000E+00  0.0000E+00
      5.602  0.0000E+00  0.0000E+00  0.0000E+00
      5.661  0.0000E+00  0.0000E+00  0.0000E+00
      5.720  0.0000E+00  0.0000E+00  0.0000E+00
      5.780  0.0000E+00  0.0000E+00  0.0000E+00
      5.839  0.0000E+00  0.0000E+00  0.0000E+00
      5.898  0.0000E+00  0.0000E+00  0.0000E+00
      5.958  0.0000E+00  0.0000E+00  0.0000E+00
      6.017  0.0000E+00  0.0000E+00  0.0000E+00
      6.076  0.0000E+00  0.0000E+00  0.0000E+00
      6.136  0.0000E+00  0.0000E+00  0.0000E+00
      6.13571452    -11.67063212  301     -1.29548253      1.00000000
    -11.671  0.0000E+00  0.0000E+00  0.0000E+00
    -11.611  0.0000E+00  0.0000E+00  0.0000E+00
    -11.552  0.0000E+00  0.0000E+00  0.0000E+00
    -11.493  0.0000E+00  0.0000E+00  0.0000E+00
    -11.433  0.0000E+00  0.0000E+00  0.0000E+00
    -11.374  0.0000E+00  0.0000E+00  0.0000E+00
    -11.315 -0.2561E-30 -0.2153E-31 -0.8548E-33
    -11.255 -0.2946E-28 -0.2476E-29 -0.9831E-31
    -11.196 -0.2858E-26 -0.2402E-27 -0.9541E-29
    -11.136 -0.2320E-24 -0.1950E-25 -0.7746E-27
    -11.077 -0.1576E-22 -0.1325E-23 -0.5263E-25
    -11.018 -0.8957E-21 -0.7529E-22 -0.2993E-23
    -10.958 -0.4258E-19 -0.3580E-20 -0.1423E-21
    -10.899 -0.1693E-17 -0.1423E-18 -0.5664E-20
    -10.840 -0.5495E-16 -0.4620E-17 -0.1840E-18
    -10.780 -0.1515E-14 -0.1274E-15 -0.5080E-17
    -10.721 -0.3502E-13 -0.2945E-14 -0.1177E-15
    -10.662 -0.6763E-12 -0.5689E-13 -0.2280E-14
    -10.602 -0.1090E-10 -0.9169E-12 -0.3691E-13
    -10.543 -0.1464E-09 -0.1233E-10 -0.4992E-12
    -10.484 -0.1640E-08 -0.1382E-09 -0.5645E-11
    -10.424 -0.1531E-07 -0.1291E-08 -0.5342E-10
    -10.365 -0.1190E-06 -0.1005E-07 -0.4234E-09
    -10.305 -0.7703E-06 -0.6518E-07 -0.2816E-08
    -10.246 -0.4150E-05 -0.3522E-06 -0.1575E-07
    -10.187 -0.1860E-04 -0.1585E-05 -0.7422E-07
    -10.127 -0.6925E-04 -0.5933E-05 -0.2948E-06
    -10.068 -0.2132E-03 -0.1840E-04 -0.9835E-06
    -10.009 -0.5365E-03 -0.4675E-04 -0.2727E-05
     -9.949 -0.1071E-02 -0.9448E-04 -0.6127E-05
     -9.890 -0.1550E-02 -0.1396E-03 -0.1049E-04
     -9.831 -0.1055E-02 -0.1020E-03 -0.1129E-04
     -9.771  0.2062E-02  0.1651E-03  0.1312E-05
     -9.712  0.9306E-02  0.7986E-03  0.3770E-04
     -9.653  0.2020E-01  0.1761E-02  0.9737E-04
     -9.593  0.3130E-01  0.2754E-02  0.1646E-03
     -9.534  0.3857E-01  0.3431E-02  0.2281E-03
     -9.475  0.4171E-01  0.3793E-02  0.3097E-03
     -9.415  0.4503E-01  0.4239E-02  0.4527E-03
     -9.356  0.5186E-01  0.5041E-02  0.6588E-03
     -9.296  0.5922E-01  0.5860E-02  0.8483E-03
     -9.237  0.6031E-01  0.6028E-02  0.9173E-03
     -9.178  0.5269E-01  0.5326E-02  0.8440E-03
     -9.118  0.4190E-01  0.4319E-02  0.7298E-03
     -9.059  0.3719E-01  0.3908E-02  0.7369E-03
     -9.000  0.4509E-01  0.4677E-02  0.9970E-03
     -8.940  0.6670E-01  0.6628E-02  0.1556E-02
     -8.881  0.9812E-01  0.9269E-02  0.2345E-02
     -8.822  0.1307E+00  0.1178E-01  0.3168E-02
     -8.762  0.1528E+00  0.1327E-01  0.3759E-02
     -8.703  0.1563E+00  0.1326E-01  0.3970E-02
     -8.644  0.1437E+00  0.1213E-01  0.3900E-02
     -8.584  0.1252E+00  0.1070E-01  0.3718E-02
     -8.525  0.1074E+00  0.9329E-02  0.3401E-02
     -8.465  0.8925E-01  0.7788E-02  0.2967E-02
     -8.406  0.7054E-01  0.6190E-02  0.3116E-02
     -8.347  0.5884E-01  0.5541E-02  0.5277E-02
     -8.287  0.6238E-01  0.6889E-02  0.1044E-01
     -8.228  0.7796E-01  0.1003E-01  0.1777E-01
     -8.169  0.9116E-01  0.1345E-01  0.2478E-01
     -8.109  0.9009E-01  0.1564E-01  0.2895E-01
     -8.050  0.7686E-01  0.1630E-01  0.2948E-01
     -7.991  0.6399E-01  0.1626E-01  0.2788E-01
     -7.931  0.6143E-01  0.1659E-01  0.2765E-01
     -7.872  0.6862E-01  0.1802E-01  0.3281E-01
     -7.813  0.7780E-01  0.2069E-01  0.4561E-01
     -7.753  0.8289E-01  0.2417E-01  0.6493E-01
     -7.694  0.8458E-01  0.2762E-01  0.8758E-01
     -7.635  0.8857E-01  0.3021E-01  0.1120E+00
     -7.575  0.1001E+00  0.3162E-01  0.1411E+00
     -7.516  0.1203E+00  0.3233E-01  0.1810E+00
     -7.456  0.1461E+00  0.3347E-01  0.2362E+00
     -7.397  0.1723E+00  0.3624E-01  0.3035E+00
     -7.338  0.1942E+00  0.4099E-01  0.3706E+00
     -7.278  0.2082E+00  0.4663E-01  0.4235E+00
     -7.219  0.2116E+00  0.5109E-01  0.4555E+00
     -7.160  0.2023E+00  0.5286E-01  0.4712E+00
     -7.100  0.1820E+00  0.5213E-01  0.4834E+00
     -7.041  0.1587E+00  0.5041E-01  0.5086E+00
     -6.982  0.1462E+00  0.4923E-01  0.5667E+00
     -6.922  0.1547E+00  0.4927E-01  0.6786E+00
     -6.863  0.1806E+00  0.5028E-01  0.8536E+00
     -6.804  0.2060E+00  0.5137E-01  0.1070E+01
     -6.744  0.2111E+00  0.5167E-01  0.1271E+01
     -6.685  0.1893E+00  0.5114E-01  0.1395E+01
     -6.626  0.1521E+00  0.5090E-01  0.1421E+01
     -6.566  0.1185E+00  0.5228E-01  0.1373E+01
     -6.507  0.1006E+00  0.5546E-01  0.1289E+01
     -6.447  0.9736E-01  0.5935E-01  0.1181E+01
     -6.388  0.9861E-01  0.6240E-01  0.1047E+01