  64  64   1   0
  0.4691157E+02  0.1134156E-08  0.1134156E-08  0.2694598E-08  0.1000000E-15
  1.000000000000000E-004
  CAR 
 unknown system                          
      7.00276855    -10.84938347  301     -1.40345787      1.00000000
    -10.849  0.0000E+00  0.0000E+00
    -10.790  0.0000E+00  0.0000E+00
    -10.730  0.0000E+00  0.0000E+00
    -10.671  0.0000E+00  0.0000E+00
    -10.611  0.0000E+00  0.0000E+00
    -10.552  0.0000E+00  0.0000E+00
    -10.492 -0.1199E-30 -0.7137E-32
    -10.433 -0.1392E-28 -0.8357E-30
    -10.373 -0.1363E-26 -0.8192E-28
    -10.314 -0.1115E-24 -0.6715E-26
    -10.254 -0.7623E-23 -0.4603E-24
    -10.195 -0.4358E-21 -0.2640E-22
    -10.135 -0.2083E-19 -0.1266E-20
    -10.076 -0.8317E-18 -0.5076E-19
    -10.016 -0.2717E-16 -0.1667E-17
     -9.957 -0.7484E-15 -0.4620E-16
     -9.897 -0.1736E-13 -0.1079E-14
     -9.838 -0.3358E-12 -0.2106E-13
     -9.778 -0.5419E-11 -0.3436E-12
     -9.719 -0.7293E-10 -0.4684E-11
     -9.659 -0.8183E-09 -0.5338E-10
     -9.600 -0.7652E-08 -0.5087E-09
     -9.540 -0.5964E-07 -0.4057E-08
     -9.481 -0.3873E-06 -0.2710E-07
     -9.421 -0.2095E-05 -0.1518E-06
     -9.362 -0.9430E-05 -0.7129E-06
     -9.302 -0.3523E-04 -0.2809E-05
     -9.243 -0.1085E-03 -0.9266E-05
     -9.183 -0.2713E-03 -0.2541E-04
     -9.124 -0.5301E-03 -0.5695E-04
     -9.064 -0.7258E-03 -0.1001E-03
     -9.005 -0.3676E-03 -0.1220E-03
     -8.945  0.1332E-02 -0.4277E-04
     -8.886  0.4927E-02  0.2504E-03
     -8.826  0.9914E-02  0.8404E-03
     -8.767  0.1460E-01  0.1709E-02
     -8.707  0.1747E-01  0.2749E-02
     -8.648  0.1888E-01  0.3872E-02
     -8.588  0.2064E-01  0.5100E-02
     -8.529  0.2349E-01  0.6498E-02
     -8.469  0.2553E-01  0.8018E-02
     -8.410  0.2412E-01  0.9453E-02
     -8.350  0.1933E-01  0.1060E-01
     -8.291  0.1488E-01  0.1149E-01
     -8.231  0.1530E-01  0.1240E-01
     -8.172  0.2188E-01  0.1370E-01
     -8.112  0.3133E-01  0.1557E-01
     -8.053  0.3813E-01  0.1783E-01
     -7.993  0.3872E-01  0.2014E-01
     -7.934  0.3469E-01  0.2220E-01
     -7.874  0.3366E-01  0.2421E-01
     -7.815  0.4638E-01  0.2697E-01
     -7.755  0.8006E-01  0.3173E-01
     -7.696  0.1328E+00  0.3964E-01
     -7.636  0.1966E+00  0.5133E-01
     -7.576  0.2655E+00  0.6713E-01
     -7.517  0.3406E+00  0.8740E-01
     -7.457  0.4238E+00  0.1126E+00
     -7.398  0.5106E+00  0.1430E+00
     -7.338  0.5904E+00  0.1781E+00
     -7.279  0.6540E+00  0.2171E+00
     -7.219  0.7001E+00  0.2587E+00
     -7.160  0.7345E+00  0.3024E+00
     -7.100  0.7629E+00  0.3478E+00
     -7.041  0.7856E+00  0.3946E+00
     -6.981  0.7976E+00  0.4420E+00
     -6.922  0.7956E+00  0.4894E+00
     -6.862  0.7826E+00  0.5360E+00
     -6.803  0.7658E+00  0.5815E+00
     -6.743  0.7491E+00  0.6261E+00
     -6.684  0.7324E+00  0.6697E+00
     -6.624  0.7172E+00  0.7124E+00
     -6.565  0.7126E+00  0.7548E+00
     -6.505  0.7304E+00  0.7982E+00
     -6.446  0.7732E+00  0.8442E+00
     -6.386  0.8285E+00  0.8935E+00
     -6.327  0.8750E+00  0.9456E+00
     -6.267  0.8948E+00  0.9989E+00
     -6.208  0.8843E+00  0.1051E+01
     -6.148  0.8578E+00  0.1103E+01
     -6.089  0.8395E+00  0.1152E+01
     -6.029  0.8477E+00  0.1203E+01
     -5.970  0.8845E+00  0.1256E+01
     -5.910  0.9363E+00  0.1311E+01
     -5.851  0.9825E+00  0.1370E+01
     -5.791  0.1006E+01  0.1430E+01
     -5.732  0.1002E+01  0.1489E+01
     -5.672  0.9774E+00  0.1547E+01
     -5.613  0.9481E+00  0.1604E+01
     -5.553  0.9282E+00  0.1659E+01
     -5.494  0.9254E+00  0.1714E+01
     -5.434  0.9393E+00  0.1770E+01
     -5.375  0.9629E+00  0.1827E+01
     -5.315  0.9879E+00  0.1886E+01
     -5.256  0.1010E+01  0.1946E+01
     -5.196  0.1028E+01  0.2007E+01
     -5.137  0.1045E+01  0.2070E+01
     -5.077  0.1057E+01  0.2132E+01
     -5.018  0.1062E+01  0.2196E+01
     -4.958  0.1060E+01  0.2259E+01
     -4.899  0.1055E+01  0.2321E+01
     -4.839  0.1051E+01  0.2384E+01
     -4.780  0.1043E+01  0.2446E+01
     -4.720  0.1029E+01  0.2507E+01
     -4.661  0.1006E+01  0.2567E+01
     -4.601  0.9696E+00  0.2625E+01
     -4.542  0.9149E+00  0.2679E+01
     -4.482  0.8383E+00  0.2729E+01
     -4.423  0.7446E+00  0.2773E+01
     -4.363  0.6458E+00  0.2812E+01
     -4.304  0.5524E+00  0.2845E+01
     -4.244  0.4667E+00  0.2873E+01
     -4.185  0.3862E+00  0.2896E+01
     -4.125  0.3097E+00  0.2914E+01
     -4.066  0.2408E+00  0.2928E+01
     -4.006  0.1854E+00  0.2939E+01
     -3.947  0.1463E+00  0.2948E+01
     -3.887  0.1233E+00  0.2955E+01
     -3.828  0.1148E+00  0.2962E+01
     -3.768  0.1192E+00  0.2969E+01
     -3.709  0.1341E+00  0.2977E+01
     -3.649  0.1562E+00  0.2987E+01
     -3.590  0.1810E+00  0.2997E+01
     -3.530  0.2026E+00  0.3009E+01
     -3.470  0.2139E+00  0.3022E+01
     -3.411  0.2095E+00  0.3035E+01
     -3.351  0.1910E+00  0.3046E+01
     -3.292  0.1687E+00  0.3056E+01
     -3.232  0.1591E+00  0.3065E+01
     -3.173  0.1751E+00  0.3076E+01
     -3.113  0.2187E+00  0.3089E+01
     -3.054  0.2805E+00  0.3106E+01
     -2.994  0.3475E+00  0.3126E+01
     -2.935  0.4097E+00  0.3151E+01
     -2.875  0.4620E+00  0.3178E+01
     -2.816  0.5010E+00  0.3208E+01
     -2.756  0.5222E+00  0.3239E+01
     -2.697  0.5209E+00  0.3270E+01
     -2.637  0.4935E+00  0.3299E+01
     -2.578  0.4401E+00  0.3326E+01
     -2.518  0.3653E+00  0.3347E+01
     -2.459  0.2799E+00  0.3364E+01
     -2.399  0.1999E+00  0.3376E+01
     -2.340  0.1429E+00  0.3384E+01
     -2.280  0.1197E+00  0.3392E+01
     -2.221  0.1259E+00  0.3399E+01
     -2.161  0.1413E+00  0.3407E+01
     -2.102  0.1443E+00  0.3416E+01
     -2.042  0.1276E+00  0.3424E+01
     -1.983  0.1009E+00  0.3430E+01
     -1.923  0.7926E-01  0.3434E+01
     -1.864  0.7151E-01  0.3439E+01
     -1.804  0.7699E-01  0.3443E+01
     -1.745  0.8833E-01  0.3448E+01
     -1.685  0.9651E-01  0.3454E+01
     -1.626  0.9668E-01  0.3460E+01
     -1.566  0.9115E-01  0.3465E+01
     -1.507  0.8670E-01  0.3470E+01
     -1.447  0.8882E-01  0.3476E+01
     -1.388  0.9811E-01  0.3482E+01
     -1.328  0.1109E+00  0.3488E+01
     -1.269  0.1219E+00  0.3495E+01
     -1.209  0.1264E+00  0.3503E+01
     -1.150  0.1221E+00  0.3510E+01
     -1.090  0.1110E+00  0.3517E+01
     -1.031  0.9798E-01  0.3523E+01
     -0.971  0.8793E-01  0.3528E+01
     -0.912  0.8244E-01  0.3533E+01
     -0.852  0.8035E-01  0.3538E+01
     -0.793  0.7956E-01  0.3542E+01
     -0.733  0.7816E-01  0.3547E+01
     -0.674  0.7571E-01  0.3551E+01
     -0.614  0.7438E-01  0.3556E+01
     -0.555  0.7751E-01  0.3561E+01
     -0.495  0.8675E-01  0.3566E+01
     -0.436  0.1016E+00  0.3572E+01
     -0.376  0.1210E+00  0.3579E+01
     -0.317  0.1422E+00  0.3587E+01
     -0.257  0.1588E+00  0.3597E+01
     -0.198  0.1630E+00  0.3607E+01
     -0.138  0.1518E+00  0.3616E+01
     -0.079  0.1294E+00  0.3623E+01
     -0.019  0.1032E+00  0.3629E+01
      0.040  0.7935E-01  0.3634E+01
      0.100  0.6236E-01  0.3638E+01
      0.159  0.5730E-01  0.3641E+01
      0.219  0.6671E-01  0.3645E+01
      0.278  0.8475E-01  0.3650E+01
      0.338  0.9839E-01  0.3656E+01
      0.397  0.9876E-01  0.3662E+01
      0.457  0.9061E-01  0.3667E+01
      0.516  0.8684E-01  0.3673E+01
      0.576  0.9422E-01  0.3678E+01
      0.636  0.1075E+00  0.3685E+01
      0.695  0.1176E+00  0.3692E+01
      0.755  0.1206E+00  0.3699E+01
      0.814  0.1195E+00  0.3706E+01
      0.874  0.1178E+00  0.3713E+01
      0.933  0.1163E+00  0.3720E+01
      0.993  0.1144E+00  0.3727E+01
      1.052  0.1130E+00  0.3733E+01
      1.112  0.1137E+00  0.3740E+01
      1.171  0.1152E+00  0.3747E+01
      1.231  0.1121E+00  0.3754E+01
      1.290  0.9902E-01  0.3760E+01
      1.350  0.7783E-01  0.3764E+01
      1.409  0.5926E-01  0.3768E+01
      1.469  0.5650E-01  0.3771E+01
      1.528  0.7443E-01  0.3775E+01
      1.588  0.1039E+00  0.3782E+01
      1.647  0.1271E+00  0.3789E+01
      1.707  0.1306E+00  0.3797E+01
      1.766  0.1142E+00  0.3804E+01
      1.826  0.8843E-01  0.3809E+01
      1.885  0.6516E-01  0.3813E+01
      1.945  0.5086E-01  0.3816E+01
      2.004  0.4674E-01  0.3819E+01
      2.064  0.5115E-01  0.3822E+01
      2.123  0.6152E-01  0.3825E+01
      2.183  0.7543E-01  0.3830E+01
      2.242  0.9011E-01  0.3835E+01
      2.302  0.1009E+00  0.3841E+01
      2.361  0.1021E+00  0.3847E+01
      2.421  0.9219E-01  0.3853E+01
      2.480  0.7690E-01  0.3857E+01
      2.540  0.6671E-01  0.3861E+01
      2.599  0.6918E-01  0.3865E+01
      2.659  0.8366E-01  0.3870E+01
      2.718  0.1016E+00  0.3877E+01
      2.778  0.1123E+00  0.3883E+01
      2.837  0.1110E+00  0.3890E+01
      2.897  0.1027E+00  0.3896E+01
      2.956  0.9756E-01  0.3902E+01
      3.016  0.1006E+00  0.3908E+01
      3.075  0.1072E+00  0.3914E+01
      3.135  0.1102E+00  0.3921E+01
      3.194  0.1092E+00  0.3927E+01
      3.254  0.1126E+00  0.3934E+01
      3.313  0.1290E+00  0.3942E+01
      3.373  0.1576E+00  0.3951E+01
      3.432  0.1867E+00  0.3962E+01
      3.492  0.2010E+00  0.3974E+01
      3.551  0.1933E+00  0.3985E+01
      3.611  0.1708E+00  0.3996E+01
      3.670  0.1497E+00  0.4005E+01
      3.730  0.1432E+00  0.4013E+01
      3.789  0.1531E+00  0.4022E+01
      3.849  0.1735E+00  0.4032E+01
      3.908  0.1984E+00  0.4044E+01
      3.968  0.2253E+00  0.4058E+01
      4.027  0.2498E+00  0.4073E+01
      4.087  0.2648E+00  0.4088E+01
      4.146  0.2651E+00  0.4104E+01
      4.206  0.2532E+00  0.4119E+01
      4.265  0.2375E+00  0.4133E+01
      4.325  0.2240E+00  0.4147E+01
      4.384  0.2111E+00  0.4159E+01
      4.444  0.1932E+00  0.4171E+01
      4.503  0.1664E+00  0.4181E+01
      4.563  0.1310E+00  0.4188E+01
      4.622  0.9066E-01  0.4194E+01
      4.682  0.5163E-01  0.4197E+01
      4.741  0.2116E-01  0.4198E+01
      4.801  0.3887E-02  0.4198E+01
      4.861 -0.7847E-03  0.4198E+01
      4.920  0.2163E-02  0.4198E+01
      4.980  0.6646E-02  0.4199E+01
      5.039  0.8586E-02  0.4199E+01
      5.099  0.7180E-02  0.4200E+01
      5.158  0.4060E-02  0.4200E+01
      5.218  0.1278E-02  0.4200E+01
      5.277 -0.1894E-03  0.4200E+01
      5.337 -0.5405E-03  0.4200E+01
      5.396 -0.3961E-03  0.4200E+01
      5.456 -0.1920E-03  0.4200E+01
      5.515 -0.7013E-04  0.4200E+01
      5.575 -0.2019E-04  0.4200E+01
      5.634 -0.4682E-05  0.4200E+01
      5.694 -0.8848E-06  0.4200E+01
      5.753 -0.1373E-06  0.4200E+01
      5.813 -0.1758E-07  0.4200E+01
      5.872 -0.1863E-08  0.4200E+01
      5.932 -0.1638E-09  0.4200E+01
      5.991 -0.1198E-10  0.4200E+01
      6.051 -0.7290E-12  0.4200E+01
      6.110 -0.3697E-13  0.4200E+01
      6.170 -0.1565E-14  0.4200E+01
      6.229 -0.5830E-16  0.4200E+01
      6.289  0.0000E+00  0.4200E+01
      6.348  0.0000E+00  0.4200E+01
      6.408  0.0000E+00  0.4200E+01
      6.467  0.0000E+00  0.4200E+01
      6.527  0.0000E+00  0.4200E+01
      6.586  0.0000E+00  0.4200E+01
      6.646  0.0000E+00  0.4200E+01
      6.705  0.0000E+00  0.4200E+01
      6.765  0.0000E+00  0.4200E+01
      6.824  0.0000E+00  0.4200E+01
      6.884  0.0000E+00  0.4200E+01
      6.943  0.0000E+00  0.4200E+01
      7.003  0.0000E+00  0.4200E+01
      7.00276855    -10.84938347  301     -1.40345787      1.00000000
    -10.849  0.0000E+00  0.0000E+00  0.0000E+00
    -10.790  0.0000E+00  0.0000E+00  0.0000E+00
    -10.730  0.0000E+00  0.0000E+00  0.0000E+00
    -10.671  0.0000E+00  0.0000E+00  0.0000E+00
    -10.611  0.0000E+00  0.0000E+00  0.0000E+00
    -10.552  0.0000E+00  0.0000E+00  0.0000E+00
    -10.492 -0.1147E-30 -0.9201E-32 -0.1146E-32
    -10.433 -0.1332E-28 -0.1068E-29 -0.1331E-30
    -10.373 -0.1303E-26 -0.1046E-27 -0.1304E-28
    -10.314 -0.1066E-24 -0.8552E-26 -0.1067E-26
    -10.254 -0.7290E-23 -0.5850E-24 -0.7300E-25
    -10.195 -0.4168E-21 -0.3345E-22 -0.4176E-23
    -10.135 -0.1992E-19 -0.1599E-20 -0.1998E-21
    -10.076 -0.7954E-18 -0.6385E-19 -0.7989E-20
    -10.016 -0.2598E-16 -0.2086E-17 -0.2615E-18
     -9.957 -0.7156E-15 -0.5749E-16 -0.7225E-17
     -9.897 -0.1660E-13 -0.1334E-14 -0.1682E-15
     -9.838 -0.3211E-12 -0.2583E-13 -0.3272E-14
     -9.778 -0.5181E-11 -0.4173E-12 -0.5321E-13
     -9.719 -0.6971E-10 -0.5624E-11 -0.7238E-12
     -9.659 -0.7820E-09 -0.6323E-10 -0.8241E-11
     -9.600 -0.7310E-08 -0.5930E-09 -0.7864E-10
     -9.540 -0.5695E-07 -0.4640E-08 -0.6298E-09
     -9.481 -0.3696E-06 -0.3030E-07 -0.4240E-08
     -9.421 -0.1998E-05 -0.1651E-06 -0.2403E-07
     -9.362 -0.8983E-05 -0.7502E-06 -0.1147E-06
     -9.302 -0.3351E-04 -0.2837E-05 -0.4600E-06
     -9.243 -0.1030E-03 -0.8871E-05 -0.1540E-05
     -9.183 -0.2570E-03 -0.2260E-04 -0.4245E-05
     -9.124 -0.5008E-03 -0.4527E-04 -0.9354E-05
     -9.064 -0.6821E-03 -0.6461E-04 -0.1545E-04
     -9.005 -0.3357E-03 -0.3989E-04 -0.1552E-04
     -8.945  0.1282E-02  0.9661E-04  0.3468E-05
     -8.886  0.4692E-02  0.3952E-03  0.5215E-04
     -8.826  0.9410E-02  0.8176E-03  0.1260E-03
     -8.767  0.1382E-01  0.1229E-02  0.2109E-03
     -8.707  0.1648E-01  0.1521E-02  0.3183E-03
     -8.648  0.1765E-01  0.1752E-02  0.5083E-03
     -8.588  0.1906E-01  0.2088E-02  0.8346E-03
     -8.529  0.2144E-01  0.2547E-02  0.1234E-02
     -8.469  0.2314E-01  0.2870E-02  0.1498E-02
     -8.410  0.2180E-01  0.2763E-02  0.1446E-02
     -8.350  0.1741E-01  0.2276E-02  0.1194E-02
     -8.291  0.1312E-01  0.1901E-02  0.1255E-02
     -8.231  0.1267E-01  0.2192E-02  0.2213E-02
     -8.172  0.1704E-01  0.3238E-02  0.4081E-02
     -8.112  0.2358E-01  0.4498E-02  0.5754E-02
     -8.053  0.2833E-01  0.5190E-02  0.5155E-02
     -7.993  0.2922E-01  0.4887E-02  0.7159E-03
     -7.934  0.2769E-01  0.3862E-02 -0.5516E-02
     -7.874  0.2830E-01  0.3008E-02 -0.4645E-02
     -7.815  0.3662E-01  0.3413E-02  0.1846E-01
     -7.755  0.5535E-01  0.5710E-02  0.7874E-01
     -7.696  0.8115E-01  0.9592E-02  0.1845E+00
     -7.636  0.1059E+00  0.1409E-01  0.3399E+00
     -7.576  0.1222E+00  0.1856E-01  0.5556E+00
     -7.517  0.1285E+00  0.2336E-01  0.8529E+00
     -7.457  0.1297E+00  0.2948E-01  0.1249E+01
     -7.398  0.1339E+00  0.3723E-01  0.1725E+01
     -7.338  0.1468E+00  0.4554E-01  0.2206E+01
     -7.279  0.1667E+00  0.5249E-01  0.2581E+01
     -7.219  0.1846E+00  0.5682E-01  0.2755E+01
     -7.160  0.1918E+00  0.5868E-01  0.2714E+01
     -7.100  0.1861E+00  0.5884E-01  0.2514E+01
     -7.041  0.1714E+00  0.5737E-01  0.2239E+01
     -6.981  0.1519E+00  0.5362E-01  0.1954E+01
     -6.922  0.1294E+00  0.4734E-01  0.1703E+01
     -6.862  0.1043E+00  0.3963E-01  0.1517E+01
     -6.803  0.7894E-01  0.3244E-01  0.1410E+01
     -6.743  0.5638E-01  0.2727E-01  0.1377E+01
     -6.684  0.3913E-01  0.2439E-01  0.1400E+01
     -6.624  0.2789E-01  0.2318E-01  0.1478E+01
     -6.565  0.2190E-01  0.2284E-01  0.1617E+01
     -6.505  0.1978E-01  0.2290E-01  0.1824E+01
     -6.446  0.2010E-01  0.2307E-01  0.2072E+01
     -6.386  0.2166E-01  0.2311E-01  0.2317E+01
     -6.327  0.2347E-01  0.2283E-01  0.2508E+01
     -6.267  0.2492E-01  0.2222E-01  0.2623E+01
     -6.208  0.2597E-01  0.2155E-01  0.2684E+01
     -6.148  0.2695E-01  0.2137E-01  0.2753E+01
     -6.089  0.2805E-01  0.2230E-01  0.2898E+01
     -6.029  0.2886E-01  0.2463E-01  0.3124E+01
     -5.970  0.2880E-01  0.2787E-01  0.3357E+01
     -5.910  0.2777E-01  0.3107E-01  0.3494E+01
     -5.851  0.2626E-01  0.3361E-01  0.3469E+01
     -5.791  0.2471E-01  0.3574E-01  0.3290E+01
     -5.732  0.2317E-01  0.3828E-01  0.3019E+01
     -5.672  0.2166E-01  0.4159E-01  0.2738E+01
     -5.613  0.2063E-01  0.4502E-01  0.2511E+01
     -5.553  0.2077E-01  0.4731E-01  0.2367E+01
     -5.494  0.2233E-01  0.4749E-01  0.2304E+01
     -5.434  0.2474E-01  0.4547E-01  0.2306E+01
     -5.375  0.2698E-01  0.4182E-01  0.2369E+01
     -5.315  0.2823E-01  0.3732E-01  0.2504E+01
     -5.256  0.2826E-01  0.3280E-01  0.2722E+01
     -5.196  0.2739E-01  0.2903E-01  0.3012E+01
     -5.137  0.2590E-01  0.2646E-01  0.3318E+01
     -5.077  0.2386E-01  0.2501E-01  0.3565E+01
     -5.018  0.2137E-01  0.2405E-01  0.3713E+01
     -4.958  0.1901E-01  0.2294E-01  0.3791E+01
     -4.899  0.1770E-01  0.2167E-01  0.3871E+01
     -4.839  0.1821E-01  0.2082E-01  0.3999E+01
     -4.780  0.2089E-01  0.2091E-01  0.4156E+01
     -4.720  0.2568E-01  0.2183E-01  0.4262E+01
     -4.661  0.3182E-01  0.2289E-01  0.4226E+01
     -4.601  0.3758E-01  0.2323E-01  0.3978E+01
     -4.542  0.4075E-01  0.2227E-01  0.3505E+01
     -4.482  0.3998E-01  0.2001E-01  0.2858E+01
     -4.423  0.3583E-01  0.1707E-01  0.2140E+01
     -4.363  0.3048E-01  0.1438E-01  0.1471E+01
     -4.304  0.2635E-01  0.1264E-01  0.9430E+00
     -4.244  0.2489E-01  0.1207E-01  0.5937E+00
     -4.185  0.2596E-01  0.1240E-01  0.4081E+00
     -4.125  0.2783E-01  0.1311E-01  0.3339E+00
     -4.066  0.2811E-01  0.1357E-01  0.3095E+00
     -4.006  0.2575E-01  0.1337E-01  0.2900E+00
     -3.947  0.2319E-01  0.1245E-01  0.2594E+00
     -3.887  0.2646E-01  0.1112E-01  0.2252E+00
     -3.828  0.4216E-01  0.9705E-02  0.2019E+00
     -3.768  0.7252E-01  0.8434E-02  0.1976E+00
     -3.709  0.1116E+00  0.7472E-02  0.2112E+00
     -3.649  0.1462E+00  0.7128E-02  0.2340E+00
     -3.590  0.1628E+00  0.7757E-02  0.2536E+00
     -3.530  0.1555E+00  0.9339E-02  0.2571E+00
     -3.470  0.1297E+00  0.1122E-01  0.2373E+00
     -3.411  0.9739E-01  0.1241E-01  0.1982E+00
     -3.351  0.6896E-01  0.1238E-01  0.1524E+00
     -3.292  0.4895E-01  0.1156E-01  0.1133E+00
     -3.232  0.3686E-01  0.1110E-01  0.8751E-01
     -3.173  0.3027E-01  0.1206E-01  0.7390E-01
     -3.113  0.2674E-01  0.1464E-01  0.6803E-01
     -3.054  0.2448E-01  0.1817E-01  0.6613E-01
     -2.994  0.2262E-01  0.2167E-01  0.6633E-01
     -2.935  0.2142E-01  0.2468E-01  0.6795E-01
     -2.875  0.2145E-01  0.2725E-01  0.7072E-01
     -2.816  0.2255E-01  0.2952E-01  0.7465E-01
     -2.756  0.2361E-01  0.3146E-01  0.7952E-01
     -2.697  0.2367E-01  0.3309E-01  0.8405E-01
     -2.637  0.2287E-01  0.3489E-01  0.8588E-01
     -2.578  0.2232E-01  0.3730E-01  0.8286E-01
     -2.518  0.2278E-01  0.3992E-01  0.7470E-01
     -2.459  0.2397E-01  0.4132E-01  0.6325E-01
     -2.399  0.2541E-01  0.4050E-01  0.5184E-01
     -2.340  0.2766E-01  0.3858E-01  0.4451E-01
     -2.280  0.3197E-01  0.3847E-01  0.4453E-01
     -2.221  0.3813E-01  0.4169E-01  0.5154E-01
     -2.161  0.4363E-01  0.4594E-01  0.5998E-01
     -2.102  0.4570E-01  0.4687E-01  0.6252E-01
     -2.042  0.4390E-01  0.4273E-01  0.5637E-01
     -1.983  0.4013E-01  0.3645E-01  0.4542E-01
     -1.923  0.3669E-01  0.3305E-01  0.3651E-01
     -1.864  0.3516E-01  0.3559E-01  0.3456E-01
     -1.804  0.3599E-01  0.4308E-01  0.4041E-01
     -1.745  0.3815E-01  0.5111E-01  0.5079E-01
     -1.685  0.3961E-01  0.5487E-01  0.5978E-01
     -1.626  0.3936E-01  0.5293E-01  0.6230E-01
     -1.566  0.3868E-01  0.4866E-01  0.5769E-01
     -1.507  0.3972E-01  0.4722E-01  0.4988E-01
     -1.447  0.4284E-01  0.5098E-01  0.4402E-01
     -1.388  0.4639E-01  0.5790E-01  0.4290E-01
     -1.328  0.4941E-01  0.6410E-01  0.4615E-01
     -1.269  0.5334E-01  0.6730E-01  0.5132E-01
     -1.209  0.5954E-01  0.6763E-01  0.5509E-01
     -1.150  0.6571E-01  0.6632E-01  0.5464E-01
     -1.090  0.6683E-01  0.6461E-01  0.4963E-01
     -1.031  0.6009E-01  0.6319E-01  0.4328E-01
     -0.971  0.4778E-01  0.6153E-01  0.4037E-01
     -0.912  0.3542E-01  0.5814E-01  0.4358E-01
     -0.852  0.2757E-01  0.5241E-01  0.5115E-01
     -0.793  0.2527E-01  0.4609E-01  0.5781E-01
     -0.733  0.2623E-01  0.4243E-01  0.5841E-01
     -0.674  0.2717E-01  0.4426E-01  0.5205E-01
     -0.614  0.2639E-01  0.5247E-01  0.4315E-01
     -0.555  0.2478E-01  0.6518E-01  0.3792E-01
     -0.495  0.2507E-01  0.7841E-01  0.3976E-01
     -0.436  0.3023E-01  0.8920E-01  0.4808E-01
     -0.376  0.4131E-01  0.9814E-01  0.6030E-01
     -0.317  0.5564E-01  0.1071E+00  0.7311E-01
     -0.257  0.6745E-01  0.1145E+00  0.8267E-01
     -0.198  0.7169E-01  0.1142E+00  0.8580E-01
     -0.138  0.6734E-01  0.1025E+00  0.8149E-01
     -0.079  0.5719E-01  0.8229E-01  0.7085E-01
     -0.019  0.4494E-01  0.6097E-01  0.5607E-01
      0.040  0.3320E-01  0.4428E-01  0.4044E-01
      0.100  0.2367E-01  0.3414E-01  0.2906E-01
      0.159  0.1767E-01  0.3130E-01  0.2746E-01
      0.219  0.1589E-01  0.3615E-01  0.3718E-01
      0.278  0.1726E-01  0.4628E-01  0.5235E-01
      0.338  0.1928E-01  0.5610E-01  0.6242E-01
      0.397  0.2007E-01  0.6198E-01  0.6073E-01
      0.457  0.2018E-01  0.6660E-01  0.5037E-01
      0.516  0.2144E-01  0.7505E-01  0.4061E-01
      0.576  0.2452E-01  0.8701E-01  0.3800E-01
      0.636  0.2827E-01  0.9584E-01  0.4224E-01
      0.695  0.3131E-01  0.9669E-01  0.4924E-01
      0.755  0.3333E-01  0.9248E-01  0.5567E-01
      0.814  0.3501E-01  0.8982E-01  0.6035E-01
      0.874  0.3718E-01  0.9074E-01  0.6336E-01
      0.933  0.3998E-01  0.9136E-01  0.6515E-01
      0.993  0.4230E-01  0.8828E-01  0.6578E-01
      1.052  0.4252E-01  0.8336E-01  0.6480E-01
      1.112  0.3991E-01  0.8098E-01  0.6186E-01
      1.171  0.3488E-01  0.8165E-01  0.5695E-01
      1.231  0.2822E-01  0.8047E-01  0.4986E-01
      1.290  0.2064E-01  0.7217E-01  0.4027E-01
      1.350  0.1343E-01  0.5714E-01  0.2948E-01
      1.409  0.8719E-02  0.4246E-01  0.2140E-01
      1.469  0.8637E-02  0.3702E-01  0.2075E-01
      1.528  0.1372E-01  0.4461E-01  0.2925E-01
      1.588  0.2175E-01  0.6037E-01  0.4334E-01
      1.647  0.2845E-01  0.7389E-01  0.5605E-01
      1.707  0.3021E-01  0.7670E-01  0.6159E-01
      1.766  0.2653E-01  0.6794E-01  0.5870E-01
      1.826  0.1976E-01  0.5362E-01  0.5001E-01
      1.885  0.1286E-01  0.4127E-01  0.3919E-01
      1.945  0.7597E-02  0.3529E-01  0.2913E-01
      2.004  0.4469E-02  0.3581E-01  0.2190E-01
      2.064  0.3561E-02  0.4046E-01  0.1888E-01
      2.123  0.5039E-02  0.4702E-01  0.2048E-01
      2.183  0.8981E-02  0.5508E-01  0.2613E-01
      2.242  0.1475E-01  0.6484E-01  0.3412E-01
      2.302  0.2064E-01  0.7403E-01  0.4148E-01
      2.361  0.2464E-01  0.7764E-01  0.4474E-01
      2.421  0.2605E-01  0.7228E-01  0.4236E-01
      2.480  0.2607E-01  0.6038E-01  0.3636E-01
      2.540  0.2657E-01  0.4894E-01  0.3084E-01
      2.599  0.2836E-01  0.4370E-01  0.2883E-01
      2.659  0.3098E-01  0.4470E-01  0.3030E-01
      2.718  0.3356E-01  0.4716E-01  0.3290E-01
      2.778  0.3555E-01  0.4616E-01  0.3397E-01
      2.837  0.3668E-01  0.4063E-01  0.3246E-01
      2.897  0.3681E-01  0.3376E-01  0.2956E-01
      2.956  0.3563E-01  0.2998E-01  0.2747E-01
      3.016  0.3257E-01  0.3119E-01  0.2740E-01
      3.075  0.2763E-01  0.3544E-01  0.2879E-01
      3.135  0.2303E-01  0.3937E-01  0.3071E-01
      3.194  0.2325E-01  0.4194E-01  0.3343E-01
      3.254  0.3169E-01  0.4520E-01  0.3839E-01
      3.313  0.4682E-01  0.5120E-01  0.4633E-01
      3.373  0.6184E-01  0.5878E-01  0.5562E-01
      3.432  0.6939E-01  0.6392E-01  0.6241E-01
      3.492  0.6760E-01  0.6319E-01  0.6272E-01
      3.551  0.6228E-01  0.5688E-01  0.5567E-01
      3.611  0.6246E-01  0.4910E-01  0.4529E-01
      3.670  0.7276E-01  0.4491E-01  0.3840E-01
      3.730  0.8925E-01  0.4639E-01  0.3978E-01
      3.789  0.1033E+00  0.5120E-01  0.4914E-01
      3.849  0.1097E+00  0.5565E-01  0.6275E-01
      3.908  0.1103E+00  0.5917E-01  0.7667E-01
      3.968  0.1090E+00  0.6463E-01  0.8755E-01
      4.027  0.1066E+00  0.7413E-01  0.9219E-01
      4.087  0.1012E+00  0.8524E-01  0.8908E-01
      4.146  0.9324E-01  0.9221E-01  0.8082E-01
      4.206  0.8744E-01  0.9104E-01  0.7338E-01
      4.265  0.8904E-01  0.8304E-01  0.7180E-01
      4.325  0.9929E-01  0.7334E-01  0.7605E-01
      4.384  0.1137E+00  0.6594E-01  0.8081E-01
      4.444  0.1236E+00  0.6048E-01  0.7942E-01
      4.503  0.1207E+00  0.5359E-01  0.6866E-01
      4.563  0.1012E+00  0.4263E-01  0.5063E-01
      4.622  0.6966E-01  0.2838E-01  0.3067E-01
      4.682  0.3637E-01  0.1443E-01  0.1404E-01
      4.741  0.1137E-01  0.4370E-02  0.3460E-02
      4.801 -0.1460E-02 -0.4728E-03 -0.1266E-02
      4.861 -0.4744E-02 -0.1195E-02 -0.2134E-02
      4.920 -0.3531E-02  0.5224E-04 -0.1370E-02
      4.980 -0.1570E-02  0.1427E-02 -0.4404E-03
      5.039 -0.3347E-03  0.1988E-02  0.9166E-04
      5.099  0.1155E-03  0.1673E-02  0.2241E-03
      5.158  0.1452E-03  0.9409E-03  0.1521E-03
      5.218  0.5816E-04  0.2928E-03  0.4807E-04
      5.277 -0.5967E-05 -0.4591E-04 -0.1109E-04
      5.337 -0.2452E-04 -0.1256E-03 -0.2458E-04
      5.396 -0.1897E-04 -0.9140E-04 -0.1751E-04
      5.456 -0.9486E-05 -0.4412E-04 -0.8374E-05
      5.515 -0.3543E-05 -0.1606E-04 -0.3029E-05
      5.575 -0.1038E-05 -0.4609E-05 -0.8650E-06
      5.634 -0.2444E-06 -0.1066E-05 -0.1992E-06
      5.694 -0.4679E-07 -0.2008E-06 -0.3740E-07
      5.753 -0.7343E-08 -0.3108E-07 -0.5770E-08
      5.813 -0.9494E-09 -0.3967E-08 -0.7346E-09
      5.872 -0.1015E-09 -0.4192E-09 -0.7745E-10
      5.932 -0.8993E-11 -0.3676E-10 -0.6778E-11
      5.991 -0.6618E-12 -0.2679E-11 -0.4932E-12
      6.051 -0.4051E-13 -0.1626E-12 -0.2987E-13
      6.110 -0.2065E-14 -0.8217E-14 -0.1508E-14
      6.170 -0.8787E-16 -0.3470E-15 -0.6360E-16
      6.229 -0.3221E-17 -0.1278E-16 -0.2352E-17
      6.289  0.0000E+00  0.0000E+00  0.0000E+00
      6.348  0.0000E+00  0.0000E+00  0.0000E+00
      6.408  0.0000E+00  0.0000E+00  0.0000E+00
      6.467  0.0000E+00  0.0000E+00  0.0000E+00
      6.527  0.0000E+00  0.0000E+00  0.0000E+00
      6.586  0.0000E+00  0.0000E+00  0.0000E+00
      6.646  0.0000E+00  0.0000E+00  0.0000E+00
      6.705  0.0000E+00  0.0000E+00  0.0000E+00
      6.765  0.0000E+00  0.0000E+00  0.0000E+00
      6.824  0.0000E+00  0.0000E+00  0.0000E+00
      6.884  0.0000E+00  0.0000E+00  0.0000E+00
      6.943  0.0000E+00  0.0000E+00  0.0000E+00
      7.003  0.0000E+00  0.0000E+00  0.0000E+00
      7.00276855    -10.84938347  301     -1.40345787      1.00000000
    -10.849  0.0000E+00  0.0000E+00  0.0000E+00
    -10.790  0.0000E+00  0.0000E+00  0.0000E+00
    -10.730  0.0000E+00  0.0000E+00  0.0000E+00
    -10.671  0.0000E+00  0.0000E+00  0.0000E+00
    -10.611  0.0000E+00  0.0000E+00  0.0000E+00
    -10.552  0.0000E+00  0.0000E+00  0.0000E+00
    -10.492 -0.1213E-30 -0.1040E-31 -0.1432E-32
    -10.433 -0.1408E-28 -0.1207E-29 -0.1662E-30
    -10.373 -0.1378E-26 -0.1182E-27 -0.1628E-28
    -10.314 -0.1127E-24 -0.9666E-26 -0.1332E-26
    -10.254 -0.7710E-23 -0.6611E-24 -0.9113E-25
    -10.195 -0.4408E-21 -0.3780E-22 -0.5213E-23
    -10.135 -0.2107E-19 -0.1807E-20 -0.2493E-21
    -10.076 -0.8413E-18 -0.7216E-19 -0.9968E-20
    -10.016 -0.2748E-16 -0.2358E-17 -0.3261E-18
     -9.957 -0.7569E-15 -0.6497E-16 -0.9004E-17
     -9.897 -0.1756E-13 -0.1508E-14 -0.2094E-15
     -9.838 -0.3397E-12 -0.2919E-13 -0.4070E-14
     -9.778 -0.5482E-11 -0.4715E-12 -0.6608E-13
     -9.719 -0.7377E-10 -0.6355E-11 -0.8968E-12
     -9.659 -0.8277E-09 -0.7144E-10 -0.1018E-10
     -9.600 -0.7741E-08 -0.6699E-09 -0.9674E-10
     -9.540 -0.6033E-07 -0.5240E-08 -0.7705E-09
     -9.481 -0.3918E-06 -0.3421E-07 -0.5151E-08
     -9.421 -0.2120E-05 -0.1863E-06 -0.2894E-07
     -9.362 -0.9542E-05 -0.8462E-06 -0.1367E-06
     -9.302 -0.3565E-04 -0.3198E-05 -0.5414E-06
     -9.243 -0.1098E-03 -0.9992E-05 -0.1789E-05
     -9.183 -0.2747E-03 -0.2543E-04 -0.4857E-05
     -9.124 -0.5371E-03 -0.5090E-04 -0.1052E-04
     -9.064 -0.7366E-03 -0.7254E-04 -0.1692E-04
     -9.005 -0.3782E-03 -0.4466E-04 -0.1578E-04
     -8.945  0.1331E-02  0.1086E-03  0.8119E-05
     -8.886  0.4950E-02  0.4432E-03  0.6710E-04
     -8.826  0.9973E-02  0.9162E-03  0.1551E-03
     -8.767  0.1473E-01  0.1378E-02  0.2510E-03
     -8.707  0.1779E-01  0.1711E-02  0.3551E-03
     -8.648  0.1959E-01  0.1986E-02  0.5201E-03
     -8.588  0.2191E-01  0.2385E-02  0.8061E-03
     -8.529  0.2515E-01  0.2912E-02  0.1173E-02
     -8.469  0.2702E-01  0.3264E-02  0.1440E-02
     -8.410  0.2487E-01  0.3113E-02  0.1435E-02
     -8.350  0.1921E-01  0.2541E-02  0.1240E-02
     -8.291  0.1410E-01  0.2107E-02  0.1290E-02
     -8.231  0.1362E-01  0.2399E-02  0.2078E-02
     -8.172  0.1838E-01  0.3474E-02  0.3565E-02
     -8.112  0.2534E-01  0.4757E-02  0.4796E-02
     -8.053  0.3074E-01  0.5488E-02  0.4340E-02
     -7.993  0.3260E-01  0.5295E-02  0.1891E-02
     -7.934  0.3157E-01  0.4471E-02  0.5958E-03
     -7.874  0.3066E-01  0.3887E-02  0.8141E-02
     -7.815  0.3421E-01  0.4568E-02  0.3389E-01
     -7.755  0.4474E-01  0.6983E-02  0.8251E-01
     -7.696  0.5984E-01  0.1055E-01  0.1501E+00
     -7.636  0.7348E-01  0.1402E-01  0.2285E+00
     -7.576  0.8125E-01  0.1651E-01  0.3147E+00
     -7.517  0.8401E-01  0.1818E-01  0.4151E+00
     -7.457  0.8650E-01  0.1992E-01  0.5412E+00
     -7.398  0.9338E-01  0.2257E-01  0.7008E+00
     -7.338  0.1063E+00  0.2631E-01  0.8919E+00
     -7.279  0.1229E+00  0.3072E-01  0.1105E+01
     -7.219  0.1384E+00  0.3523E-01  0.1330E+01
     -7.160  0.1490E+00  0.3969E-01  0.1561E+01
     -7.100  0.1539E+00  0.4426E-01  0.1785E+01
     -7.041  0.1538E+00  0.4867E-01  0.1977E+01
     -6.981  0.1479E+00  0.5170E-01  0.2101E+01
     -6.922  0.1342E+00  0.5190E-01  0.2135E+01
     -6.862  0.1128E+00  0.4883E-01  0.2089E+01
     -6.803  0.8823E-01  0.4344E-01  0.2001E+01
     -6.743  0.6648E-01  0.3739E-01  0.1911E+01
     -6.684  0.5130E-01  0.3203E-01  0.1844E+01
     -6.624  0.4273E-01  0.2801E-01  0.1807E+01
     -6.565  0.3848E-01  0.2536E-01  0.1800E+01
     -6.505  0.3629E-01  0.2387E-01  0.1828E+01
     -6.446  0.3495E-01  0.2315E-01  0.1891E+01
     -6.386  0.3398E-01  0.2276E-01  0.1972E+01
     -6.327  0.3290E-01  0.2226E-01  0.2037E+01
     -6.267  0.3120E-01  0.2135E-01  0.2060E+01
     -6.208  0.2901E-01  0.2016E-01  0.2051E+01
     -6.148  0.2751E-01  0.1926E-01  0.2062E+01
     -6.089  0.2807E-01  0.1931E-01  0.2155E+01
     -6.029  0.3089E-01  0.2043E-01  0.2349E+01
     -5.970  0.3450E-01  0.2216E-01  0.2603E+01
     -5.910  0.3692E-01  0.2391E-01  0.2860E+01
     -5.851  0.3717E-01  0.2547E-01  0.3091E+01
     -5.791  0.3594E-01  0.2692E-01  0.3285E+01
     -5.732  0.3495E-01  0.2828E-01  0.3430E+01
     -5.672  0.3597E-01  0.2947E-01  0.3511E+01
     -5.613  0.4003E-01  0.3049E-01  0.3538E+01
     -5.553  0.4684E-01  0.3150E-01  0.3551E+01