  64  64   1   0
  0.4229880E+02  0.1083326E-08  0.1083325E-08  0.2663434E-08  0.1000000E-15
  1.000000000000000E-004
  CAR 
 unknown system                          
      4.66511376    -12.31687975  301     -0.19844638      1.00000000
    -12.317  0.0000E+00  0.0000E+00
    -12.260  0.0000E+00  0.0000E+00
    -12.204  0.0000E+00  0.0000E+00
    -12.147  0.0000E+00  0.0000E+00
    -12.090  0.0000E+00  0.0000E+00
    -12.034  0.0000E+00  0.0000E+00
    -11.977  0.0000E+00  0.0000E+00
    -11.921 -0.2966E-29 -0.1679E-30
    -11.864 -0.2442E-27 -0.1399E-28
    -11.807 -0.1729E-25 -0.9925E-27
    -11.751 -0.1040E-23 -0.5988E-25
    -11.694 -0.5324E-22 -0.3073E-23
    -11.638 -0.2316E-20 -0.1342E-21
    -11.581 -0.8563E-19 -0.4981E-20
    -11.524 -0.2690E-17 -0.1572E-18
    -11.468 -0.6932E-16 -0.4081E-17
    -11.411 -0.1573E-14 -0.9312E-16
    -11.355 -0.3013E-13 -0.1799E-14
    -11.298 -0.4895E-12 -0.2951E-13
    -11.241 -0.6737E-11 -0.4109E-12
    -11.185 -0.7852E-10 -0.4856E-11
    -11.128 -0.7742E-09 -0.4868E-10
    -11.072 -0.6451E-08 -0.4139E-09
    -11.015 -0.4539E-07 -0.2983E-08
    -10.958 -0.2694E-06 -0.1823E-07
    -10.902 -0.1347E-05 -0.9448E-07
    -10.845 -0.5666E-05 -0.4152E-06
    -10.789 -0.2003E-04 -0.1549E-05
    -10.732 -0.5934E-04 -0.4908E-05
    -10.675 -0.1466E-03 -0.1321E-04
    -10.619 -0.2977E-03 -0.3005E-04
    -10.562 -0.4764E-03 -0.5702E-04
    -10.505 -0.5151E-03 -0.8618E-04
    -10.449 -0.3226E-04 -0.8801E-04
    -10.392  0.1542E-02 -0.7174E-06
    -10.336  0.4656E-02  0.2629E-03
    -10.279  0.9035E-02  0.7743E-03
    -10.222  0.1330E-01  0.1527E-02
    -10.166  0.1564E-01  0.2413E-02
    -10.109  0.1544E-01  0.3287E-02
    -10.053  0.1425E-01  0.4094E-02
     -9.996  0.1456E-01  0.4918E-02
     -9.939  0.1723E-01  0.5893E-02
     -9.883  0.2056E-01  0.7057E-02
     -9.826  0.2186E-01  0.8294E-02
     -9.770  0.1994E-01  0.9423E-02
     -9.713  0.1577E-01  0.1032E-01
     -9.656  0.1135E-01  0.1096E-01
     -9.600  0.8406E-02  0.1143E-01
     -9.543  0.7876E-02  0.1188E-01
     -9.487  0.9930E-02  0.1244E-01
     -9.430  0.1403E-01  0.1324E-01
     -9.373  0.1910E-01  0.1432E-01
     -9.317  0.2386E-01  0.1567E-01
     -9.260  0.2727E-01  0.1721E-01
     -9.204  0.2849E-01  0.1882E-01
     -9.147  0.2687E-01  0.2035E-01
     -9.090  0.2251E-01  0.2162E-01
     -9.034  0.1698E-01  0.2258E-01
     -8.977  0.1320E-01  0.2333E-01
     -8.920  0.1372E-01  0.2410E-01
     -8.864  0.1887E-01  0.2517E-01
     -8.807  0.2665E-01  0.2668E-01
     -8.751  0.3433E-01  0.2862E-01
     -8.694  0.4032E-01  0.3091E-01
     -8.637  0.4451E-01  0.3343E-01
     -8.581  0.4724E-01  0.3610E-01
     -8.524  0.4798E-01  0.3882E-01
     -8.468  0.4549E-01  0.4139E-01
     -8.411  0.3923E-01  0.4361E-01
     -8.354  0.3076E-01  0.4535E-01
     -8.298  0.2345E-01  0.4668E-01
     -8.241  0.2104E-01  0.4787E-01
     -8.185  0.2601E-01  0.4934E-01
     -8.128  0.3823E-01  0.5151E-01
     -8.071  0.5428E-01  0.5458E-01
     -8.015  0.6854E-01  0.5846E-01
     -7.958  0.7606E-01  0.6277E-01
     -7.902  0.7540E-01  0.6703E-01
     -7.845  0.6964E-01  0.7098E-01
     -7.788  0.6536E-01  0.7468E-01
     -7.732  0.7019E-01  0.7865E-01
     -7.675  0.8935E-01  0.8371E-01
     -7.619  0.1226E+00  0.9064E-01
     -7.562  0.1633E+00  0.9989E-01
     -7.505  0.2017E+00  0.1113E+00
     -7.449  0.2292E+00  0.1243E+00
     -7.392  0.2425E+00  0.1380E+00
     -7.335  0.2436E+00  0.1518E+00
     -7.279  0.2373E+00  0.1652E+00
     -7.222  0.2283E+00  0.1781E+00
     -7.166  0.2197E+00  0.1906E+00
     -7.109  0.2139E+00  0.2027E+00
     -7.052  0.2134E+00  0.2148E+00
     -6.996  0.2196E+00  0.2272E+00
     -6.939  0.2321E+00  0.2403E+00
     -6.883  0.2500E+00  0.2545E+00
     -6.826  0.2725E+00  0.2699E+00
     -6.769  0.2987E+00  0.2868E+00
     -6.713  0.3260E+00  0.3053E+00
     -6.656  0.3507E+00  0.3251E+00
     -6.600  0.3693E+00  0.3460E+00
     -6.543  0.3788E+00  0.3675E+00
     -6.486  0.3773E+00  0.3888E+00
     -6.430  0.3666E+00  0.4096E+00
     -6.373  0.3540E+00  0.4296E+00
     -6.317  0.3503E+00  0.4495E+00
     -6.260  0.3612E+00  0.4699E+00
     -6.203  0.3809E+00  0.4915E+00
     -6.147  0.3951E+00  0.5138E+00
     -6.090  0.3912E+00  0.5360E+00
     -6.034  0.3681E+00  0.5568E+00
     -5.977  0.3363E+00  0.5759E+00
     -5.920  0.3092E+00  0.5934E+00
     -5.864  0.2932E+00  0.6100E+00
     -5.807  0.2851E+00  0.6261E+00
     -5.751  0.2793E+00  0.6419E+00
     -5.694  0.2760E+00  0.6575E+00
     -5.637  0.2815E+00  0.6735E+00
     -5.581  0.2997E+00  0.6904E+00
     -5.524  0.3268E+00  0.7089E+00
     -5.467  0.3524E+00  0.7289E+00
     -5.411  0.3666E+00  0.7496E+00
     -5.354  0.3645E+00  0.7703E+00
     -5.298  0.3482E+00  0.7900E+00
     -5.241  0.3256E+00  0.8084E+00
     -5.184  0.3079E+00  0.8258E+00
     -5.128  0.3032E+00  0.8430E+00
     -5.071  0.3116E+00  0.8606E+00
     -5.015  0.3264E+00  0.8791E+00
     -4.958  0.3393E+00  0.8983E+00
     -4.901  0.3466E+00  0.9179E+00
     -4.845  0.3492E+00  0.9377E+00
     -4.788  0.3497E+00  0.9575E+00
     -4.732  0.3485E+00  0.9772E+00
     -4.675  0.3416E+00  0.9966E+00
     -4.618  0.3241E+00  0.1015E+01
     -4.562  0.2976E+00  0.1032E+01
     -4.505  0.2731E+00  0.1047E+01
     -4.449  0.2645E+00  0.1062E+01
     -4.392  0.2768E+00  0.1078E+01
     -4.335  0.3035E+00  0.1095E+01
     -4.279  0.3345E+00  0.1114E+01
     -4.222  0.3650E+00  0.1135E+01
     -4.166  0.3960E+00  0.1157E+01
     -4.109  0.4293E+00  0.1181E+01
     -4.052  0.4619E+00  0.1207E+01
     -3.996  0.4849E+00  0.1235E+01
     -3.939  0.4890E+00  0.1263E+01
     -3.882  0.4733E+00  0.1289E+01
     -3.826  0.4495E+00  0.1315E+01
     -3.769  0.4365E+00  0.1340E+01
     -3.713  0.4476E+00  0.1365E+01
     -3.656  0.4831E+00  0.1392E+01
     -3.599  0.5301E+00  0.1422E+01
     -3.543  0.5706E+00  0.1455E+01
     -3.486  0.5917E+00  0.1488E+01
     -3.430  0.5925E+00  0.1522E+01
     -3.373  0.5821E+00  0.1555E+01
     -3.316  0.5716E+00  0.1587E+01
     -3.260  0.5677E+00  0.1619E+01
     -3.203  0.5745E+00  0.1652E+01
     -3.147  0.5945E+00  0.1685E+01
     -3.090  0.6227E+00  0.1720E+01
     -3.033  0.6406E+00  0.1757E+01
     -2.977  0.6243E+00  0.1792E+01
     -2.920  0.5644E+00  0.1824E+01
     -2.864  0.4781E+00  0.1851E+01
     -2.807  0.3986E+00  0.1874E+01
     -2.750  0.3494E+00  0.1893E+01
     -2.694  0.3287E+00  0.1912E+01
     -2.637  0.3166E+00  0.1930E+01
     -2.581  0.2967E+00  0.1947E+01
     -2.524  0.2706E+00  0.1962E+01
     -2.467  0.2546E+00  0.1976E+01
     -2.411  0.2674E+00  0.1992E+01
     -2.354  0.3184E+00  0.2010E+01
     -2.298  0.4030E+00  0.2032E+01
     -2.241  0.5020E+00  0.2061E+01
     -2.184  0.5856E+00  0.2094E+01
     -2.128  0.6250E+00  0.2129E+01
     -2.071  0.6056E+00  0.2164E+01
     -2.014  0.5349E+00  0.2194E+01
     -1.958  0.4387E+00  0.2219E+01
     -1.901  0.3461E+00  0.2238E+01
     -1.845  0.2765E+00  0.2254E+01
     -1.788  0.2363E+00  0.2267E+01
     -1.731  0.2243E+00  0.2280E+01
     -1.675  0.2362E+00  0.2293E+01
     -1.618  0.2651E+00  0.2308E+01
     -1.562  0.3022E+00  0.2326E+01
     -1.505  0.3396E+00  0.2345E+01
     -1.448  0.3725E+00  0.2366E+01
     -1.392  0.3992E+00  0.2388E+01
     -1.335  0.4193E+00  0.2412E+01
     -1.279  0.4330E+00  0.2437E+01
     -1.222  0.4405E+00  0.2462E+01
     -1.165  0.4434E+00  0.2487E+01
     -1.109  0.4466E+00  0.2512E+01
     -1.052  0.4563E+00  0.2538E+01
     -0.996  0.4758E+00  0.2565E+01
     -0.939  0.5021E+00  0.2593E+01
     -0.882  0.5273E+00  0.2623E+01
     -0.826  0.5394E+00  0.2654E+01
     -0.769  0.5255E+00  0.2683E+01
     -0.713  0.4777E+00  0.2710E+01
     -0.656  0.4006E+00  0.2733E+01
     -0.599  0.3154E+00  0.2751E+01
     -0.543  0.2517E+00  0.2765E+01
     -0.486  0.2326E+00  0.2778E+01
     -0.429  0.2605E+00  0.2793E+01
     -0.373  0.3155E+00  0.2811E+01
     -0.316  0.3684E+00  0.2832E+01
     -0.260  0.4010E+00  0.2854E+01
     -0.203  0.4161E+00  0.2878E+01
     -0.146  0.4303E+00  0.2902E+01
     -0.090  0.4546E+00  0.2928E+01
     -0.033  0.4816E+00  0.2955E+01
      0.023  0.4921E+00  0.2983E+01
      0.080  0.4734E+00  0.3010E+01
      0.137  0.4331E+00  0.3035E+01
      0.193  0.3939E+00  0.3057E+01
      0.250  0.3784E+00  0.3078E+01
      0.306  0.3964E+00  0.3101E+01
      0.363  0.4421E+00  0.3126E+01
      0.420  0.4983E+00  0.3154E+01
      0.476  0.5431E+00  0.3185E+01
      0.533  0.5591E+00  0.3216E+01
      0.589  0.5416E+00  0.3247E+01
      0.646  0.4996E+00  0.3275E+01
      0.703  0.4474E+00  0.3301E+01
      0.759  0.3956E+00  0.3323E+01
      0.816  0.3476E+00  0.3343E+01
      0.872  0.3040E+00  0.3360E+01
      0.929  0.2661E+00  0.3375E+01
      0.986  0.2350E+00  0.3388E+01
      1.042  0.2090E+00  0.3400E+01
      1.099  0.1833E+00  0.3410E+01
      1.156  0.1546E+00  0.3419E+01
      1.212  0.1241E+00  0.3426E+01
      1.269  0.9537E-01  0.3432E+01
      1.325  0.7286E-01  0.3436E+01
      1.382  0.6060E-01  0.3439E+01
      1.439  0.6144E-01  0.3443E+01
      1.495  0.7437E-01  0.3447E+01
      1.552  0.9251E-01  0.3452E+01
      1.608  0.1055E+00  0.3458E+01
      1.665  0.1054E+00  0.3464E+01
      1.722  0.9085E-01  0.3469E+01
      1.778  0.6783E-01  0.3473E+01
      1.835  0.4471E-01  0.3476E+01
      1.891  0.2722E-01  0.3477E+01
      1.948  0.1622E-01  0.3478E+01
      2.005  0.9497E-02  0.3479E+01
      2.061  0.4845E-02  0.3479E+01
      2.118  0.1515E-02  0.3479E+01
      2.174 -0.4232E-03  0.3479E+01
      2.231 -0.1107E-02  0.3479E+01
      2.288 -0.1061E-02  0.3479E+01
      2.344 -0.7789E-03  0.3479E+01
      2.401 -0.3759E-03  0.3479E+01
      2.457  0.3652E-03  0.3479E+01
      2.514  0.1659E-02  0.3479E+01
      2.571  0.3330E-02  0.3479E+01
      2.627  0.4727E-02  0.3479E+01
      2.684  0.5117E-02  0.3480E+01
      2.740  0.4275E-02  0.3480E+01
      2.797  0.2684E-02  0.3480E+01
      2.854  0.1134E-02  0.3480E+01
      2.910  0.1487E-03  0.3480E+01
      2.967 -0.2303E-03  0.3480E+01
      3.024 -0.2471E-03  0.3480E+01
      3.080 -0.1509E-03  0.3480E+01
      3.137 -0.6789E-04  0.3480E+01
      3.193 -0.2412E-04  0.3480E+01
      3.250 -0.6971E-05  0.3480E+01
      3.307 -0.1664E-05  0.3480E+01
      3.363 -0.3308E-06  0.3480E+01
      3.420 -0.5513E-07  0.3480E+01
      3.476 -0.7729E-08  0.3480E+01
      3.533 -0.9139E-09  0.3480E+01
      3.590 -0.9134E-10  0.3480E+01
      3.646 -0.7727E-11  0.3480E+01
      3.703 -0.5539E-12  0.3480E+01
      3.759 -0.3368E-13  0.3480E+01
      3.816 -0.1738E-14  0.3480E+01
      3.873 -0.7600E-16  0.3480E+01
      3.929 -0.2452E-17  0.3480E+01
      3.986  0.0000E+00  0.3480E+01
      4.042  0.0000E+00  0.3480E+01
      4.099  0.0000E+00  0.3480E+01
      4.156  0.0000E+00  0.3480E+01
      4.212  0.0000E+00  0.3480E+01
      4.269  0.0000E+00  0.3480E+01
      4.325  0.0000E+00  0.3480E+01
      4.382  0.0000E+00  0.3480E+01
      4.439  0.0000E+00  0.3480E+01
      4.495  0.0000E+00  0.3480E+01
      4.552  0.0000E+00  0.3480E+01
      4.609  0.0000E+00  0.3480E+01
      4.665  0.0000E+00  0.3480E+01
      4.66511376    -12.31687975  301     -0.19844638      1.00000000
    -12.317  0.0000E+00  0.0000E+00  0.0000E+00
    -12.260  0.0000E+00  0.0000E+00  0.0000E+00
    -12.204  0.0000E+00  0.0000E+00  0.0000E+00
    -12.147  0.0000E+00  0.0000E+00  0.0000E+00
    -12.090  0.0000E+00  0.0000E+00  0.0000E+00
    -12.034  0.0000E+00  0.0000E+00  0.0000E+00
    -11.977  0.0000E+00  0.0000E+00  0.0000E+00
    -11.921 -0.3608E-29 -0.4509E-30 -0.5960E-32
    -11.864 -0.2972E-27 -0.3713E-28 -0.4909E-30
    -11.807 -0.2103E-25 -0.2628E-26 -0.3475E-28
    -11.751 -0.1266E-23 -0.1582E-24 -0.2092E-26
    -11.694 -0.6478E-22 -0.8095E-23 -0.1071E-24
    -11.638 -0.2818E-20 -0.3521E-21 -0.4659E-23
    -11.581 -0.1042E-18 -0.1302E-19 -0.1723E-21
    -11.524 -0.3273E-17 -0.4090E-18 -0.5417E-20
    -11.468 -0.8435E-16 -0.1054E-16 -0.1398E-18
    -11.411 -0.1914E-14 -0.2392E-15 -0.3176E-17
    -11.355 -0.3666E-13 -0.4583E-14 -0.6098E-16
    -11.298 -0.5956E-12 -0.7445E-13 -0.9939E-15
    -11.241 -0.8198E-11 -0.1025E-11 -0.1375E-13
    -11.185 -0.9554E-10 -0.1195E-10 -0.1616E-12
    -11.128 -0.9420E-09 -0.1179E-09 -0.1613E-11
    -11.072 -0.7850E-08 -0.9828E-09 -0.1370E-10
    -11.015 -0.5524E-07 -0.6922E-08 -0.9913E-10
    -10.958 -0.3278E-06 -0.4115E-07 -0.6134E-09
    -10.902 -0.1639E-05 -0.2062E-06 -0.3260E-08
    -10.845 -0.6895E-05 -0.8707E-06 -0.1495E-07
    -10.789 -0.2437E-04 -0.3095E-05 -0.5952E-07
    -10.732 -0.7222E-04 -0.9246E-05 -0.2060E-06
    -10.675 -0.1784E-03 -0.2312E-04 -0.6175E-06
    -10.619 -0.3624E-03 -0.4779E-04 -0.1579E-05
    -10.562 -0.5804E-03 -0.7859E-04 -0.3338E-05
    -10.505 -0.6281E-03 -0.8969E-04 -0.5442E-05
    -10.449 -0.4111E-04 -0.1892E-04 -0.5538E-05
    -10.392  0.1875E-02  0.2302E-03  0.1223E-05
    -10.336  0.5667E-02  0.7366E-03  0.1978E-04
    -10.279  0.1100E-01  0.1458E-02  0.4931E-04
    -10.222  0.1618E-01  0.2167E-02  0.8001E-04
    -10.166  0.1901E-01  0.2565E-02  0.1012E-03
    -10.109  0.1875E-01  0.2571E-02  0.1184E-03
    -10.053  0.1736E-01  0.2481E-02  0.1586E-03
     -9.996  0.1794E-01  0.2733E-02  0.2479E-03
     -9.939  0.2157E-01  0.3442E-02  0.3778E-03
     -9.883  0.2598E-01  0.4227E-02  0.5013E-03
     -9.826  0.2760E-01  0.4539E-02  0.5666E-03
     -9.770  0.2476E-01  0.4133E-02  0.5544E-03
     -9.713  0.1885E-01  0.3227E-02  0.4837E-03
     -9.656  0.1285E-01  0.2287E-02  0.3940E-03
     -9.600  0.9431E-02  0.1741E-02  0.3323E-03
     -9.543  0.9889E-02  0.1835E-02  0.3502E-03
     -9.487  0.1396E-01  0.2581E-02  0.4962E-03
     -9.430  0.1995E-01  0.3754E-02  0.7979E-03
     -9.373  0.2555E-01  0.4984E-02  0.1243E-02
     -9.317  0.2922E-01  0.5971E-02  0.1766E-02
     -9.260  0.3103E-01  0.6615E-02  0.2251E-02
     -9.204  0.3176E-01  0.6889E-02  0.2544E-02
     -9.147  0.3141E-01  0.6649E-02  0.2513E-02
     -9.090  0.2959E-01  0.5749E-02  0.2144E-02
     -9.034  0.2753E-01  0.4414E-02  0.1622E-02
     -8.977  0.2857E-01  0.3366E-02  0.1295E-02
     -8.920  0.3540E-01  0.3390E-02  0.1497E-02
     -8.864  0.4681E-01  0.4730E-02  0.2360E-02
     -8.807  0.5789E-01  0.6929E-02  0.3761E-02
     -8.751  0.6415E-01  0.9228E-02  0.5420E-02
     -8.694  0.6546E-01  0.1112E-01  0.7049E-02
     -8.637  0.6566E-01  0.1250E-01  0.8438E-02
     -8.581  0.6813E-01  0.1345E-01  0.9432E-02
     -8.524  0.7181E-01  0.1378E-01  0.9860E-02
     -8.468  0.7226E-01  0.1314E-01  0.9559E-02
     -8.411  0.6651E-01  0.1140E-01  0.8547E-02
     -8.354  0.5625E-01  0.9033E-02  0.7161E-02
     -8.298  0.4650E-01  0.7067E-02  0.6029E-02
     -8.241  0.4236E-01  0.6707E-02  0.5929E-02
     -8.185  0.4707E-01  0.8799E-02  0.7605E-02
     -8.128  0.6102E-01  0.1325E-01  0.1142E-01
     -8.071  0.8082E-01  0.1872E-01  0.1691E-01
     -8.015  0.9969E-01  0.2318E-01  0.2282E-01
     -7.958  0.1105E+00  0.2503E-01  0.2777E-01
     -7.902  0.1098E+00  0.2395E-01  0.3142E-01
     -7.845  0.9977E-01  0.2094E-01  0.3521E-01
     -7.788  0.8813E-01  0.1779E-01  0.4200E-01
     -7.732  0.8391E-01  0.1638E-01  0.5461E-01
     -7.675  0.9238E-01  0.1808E-01  0.7414E-01
     -7.619  0.1117E+00  0.2304E-01  0.9944E-01
     -7.562  0.1346E+00  0.2995E-01  0.1282E+00
     -7.505  0.1535E+00  0.3675E-01  0.1579E+00
     -7.449  0.1647E+00  0.4176E-01  0.1852E+00
     -7.392  0.1677E+00  0.4447E-01  0.2059E+00
     -7.335  0.1641E+00  0.4538E-01  0.2162E+00
     -7.279  0.1570E+00  0.4542E-01  0.2153E+00
     -7.222  0.1522E+00  0.4560E-01  0.2061E+00
     -7.166  0.1559E+00  0.4696E-01  0.1949E+00
     -7.109  0.1700E+00  0.5026E-01  0.1890E+00
     -7.052  0.1898E+00  0.5538E-01  0.1932E+00
     -6.996  0.2066E+00  0.6119E-01  0.2077E+00
     -6.939  0.2135E+00  0.6630E-01  0.2295E+00
     -6.883  0.2096E+00  0.7003E-01  0.2573E+00
     -6.826  0.1994E+00  0.7252E-01  0.2962E+00
     -6.769  0.1904E+00  0.7407E-01  0.3549E+00
     -6.713  0.1903E+00  0.7479E-01  0.4391E+00
     -6.656  0.2034E+00  0.7482E-01  0.5444E+00
     -6.600  0.2266E+00  0.7415E-01  0.6540E+00
     -6.543  0.2482E+00  0.7222E-01  0.7411E+00
     -6.486  0.2537E+00  0.6815E-01  0.7802E+00
     -6.430  0.2370E+00  0.6228E-01  0.7650E+00
     -6.373  0.2051E+00  0.5692E-01  0.7195E+00
     -6.317  0.1728E+00  0.5516E-01  0.6852E+00
     -6.260  0.1515E+00  0.5811E-01  0.6911E+00
     -6.203  0.1418E+00  0.6354E-01  0.7286E+00
     -6.147  0.1363E+00  0.6724E-01  0.7586E+00
     -6.090  0.1274E+00  0.6624E-01  0.7436E+00
     -6.034  0.1135E+00  0.6101E-01  0.6780E+00
     -5.977  0.9842E-01  0.5470E-01  0.5886E+00
     -5.920  0.8631E-01  0.5035E-01  0.5102E+00
     -5.864  0.7792E-01  0.4853E-01  0.4613E+00
     -5.807  0.7098E-01  0.4751E-01  0.4402E+00
     -5.751  0.6305E-01  0.4550E-01  0.4403E+00
     -5.694  0.5396E-01  0.4283E-01  0.4641E+00
     -5.637  0.4575E-01  0.4195E-01  0.5230E+00
     -5.581  0.4090E-01  0.4528E-01  0.6229E+00
     -5.524  0.4054E-01  0.5294E-01  0.7513E+00
     -5.467  0.4393E-01  0.6239E-01  0.8762E+00
     -5.411  0.4907E-01  0.6979E-01  0.9577E+00
     -5.354  0.5366E-01  0.7208E-01  0.9685E+00
     -5.298  0.5599E-01  0.6851E-01  0.9106E+00
     -5.241  0.5541E-01  0.6116E-01  0.8183E+00
     -5.184  0.5248E-01  0.5393E-01  0.7384E+00
     -5.128  0.4845E-01  0.5024E-01  0.7011E+00
     -5.071  0.4467E-01  0.5107E-01  0.7052E+00
     -5.015  0.4199E-01  0.5456E-01  0.7270E+00
     -4.958  0.4060E-01  0.5773E-01  0.7425E+00
     -4.901  0.4008E-01  0.5856E-01  0.7421E+00
     -4.845  0.3977E-01  0.5686E-01  0.7286E+00
     -4.788  0.3914E-01  0.5349E-01  0.7067E+00
     -4.732  0.3780E-01  0.4907E-01  0.6756E+00
     -4.675  0.3515E-01  0.4345E-01  0.6315E+00
     -4.618  0.3053E-01  0.3635E-01  0.5766E+00
     -4.562  0.2419E-01  0.2847E-01  0.5276E+00
     -4.505  0.1782E-01  0.2173E-01  0.5114E+00
     -4.449  0.1358E-01  0.1822E-01  0.5465E+00
     -4.392  0.1246E-01  0.1877E-01  0.6256E+00
     -4.335  0.1405E-01  0.2270E-01  0.7217E+00
     -4.279  0.1783E-01  0.2878E-01  0.8127E+00
     -4.222  0.2419E-01  0.3650E-01  0.8997E+00
     -4.166  0.3394E-01  0.4619E-01  0.9995E+00
     -4.109  0.4646E-01  0.5792E-01  0.1120E+01
     -4.052  0.5869E-01  0.6999E-01  0.1240E+01
     -3.996  0.6618E-01  0.7876E-01  0.1320E+01
     -3.939  0.6578E-01  0.8073E-01  0.1328E+01
     -3.882  0.5785E-01  0.7535E-01  0.1270E+01
     -3.826  0.4614E-01  0.6600E-01  0.1191E+01
     -3.769  0.3598E-01  0.5857E-01  0.1149E+01
     -3.713  0.3215E-01  0.5836E-01  0.1174E+01
     -3.656  0.3697E-01  0.6725E-01  0.1260E+01
     -3.599  0.4897E-01  0.8220E-01  0.1374E+01
     -3.543  0.6296E-01  0.9668E-01  0.1486E+01
     -3.486  0.7296E-01  0.1050E+00  0.1577E+01
     -3.430  0.7619E-01  0.1066E+00  0.1645E+01
     -3.373  0.7433E-01  0.1056E+00  0.1697E+01
     -3.316  0.7078E-01  0.1059E+00  0.1738E+01
     -3.260  0.6739E-01  0.1067E+00  0.1764E+01
     -3.203  0.6437E-01  0.1046E+00  0.1777E+01
     -3.147  0.6220E-01  0.9917E-01  0.1790E+01
     -3.090  0.6188E-01  0.9434E-01  0.1818E+01
     -3.033  0.6309E-01  0.9425E-01  0.1836E+01
     -2.977  0.6342E-01  0.9845E-01  0.1791E+01
     -2.920  0.6053E-01  0.1026E+00  0.1644E+01
     -2.864  0.5466E-01  0.1036E+00  0.1424E+01
     -2.807  0.4865E-01  0.1026E+00  0.1207E+01
     -2.750  0.4537E-01  0.1038E+00  0.1059E+01
     -2.694  0.4567E-01  0.1096E+00  0.9856E+00
     -2.637  0.4859E-01  0.1187E+00  0.9421E+00
     -2.581  0.5284E-01  0.1281E+00  0.8875E+00
     -2.524  0.5758E-01  0.1358E+00  0.8196E+00
     -2.467  0.6193E-01  0.1413E+00  0.7703E+00
     -2.411  0.6441E-01  0.1437E+00  0.7788E+00
     -2.354  0.6328E-01  0.1421E+00  0.8711E+00
     -2.298  0.5785E-01  0.1369E+00  0.1050E+01
     -2.241  0.4942E-01  0.1309E+00  0.1288E+01
     -2.184  0.4072E-01  0.1266E+00  0.1521E+01
     -2.128  0.3410E-01  0.1236E+00  0.1666E+01
     -2.071  0.3021E-01  0.1184E+00  0.1657E+01
     -2.014  0.2818E-01  0.1083E+00  0.1490E+01
     -1.958  0.2668E-01  0.9418E-01  0.1226E+01
     -1.901  0.2484E-01  0.7987E-01  0.9564E+00
     -1.845  0.2269E-01  0.6958E-01  0.7507E+00
     -1.788  0.2100E-01  0.6617E-01  0.6384E+00
     -1.731  0.2039E-01  0.6998E-01  0.6187E+00
     -1.675  0.2070E-01  0.7816E-01  0.6747E+00
     -1.618  0.2146E-01  0.8621E-01  0.7779E+00
     -1.562  0.2286E-01  0.9239E-01  0.8965E+00
     -1.505  0.2587E-01  0.9978E-01  0.1006E+01
     -1.448  0.3084E-01  0.1119E+00  0.1093E+01
     -1.392  0.3645E-01  0.1264E+00  0.1149E+01
     -1.335  0.4061E-01  0.1361E+00  0.1175E+01
     -1.279  0.4248E-01  0.1355E+00  0.1177E+01
     -1.222  0.4318E-01  0.1260E+00  0.1170E+01
     -1.165  0.4431E-01  0.1127E+00  0.1176E+01
     -1.109  0.4601E-01  0.9873E-01  0.1220E+01
     -1.052  0.4683E-01  0.8590E-01  0.1316E+01
     -0.996  0.4544E-01  0.7716E-01  0.1449E+01
     -0.939  0.4224E-01  0.7667E-01  0.1578E+01
     -0.882  0.3913E-01  0.8522E-01  0.1656E+01
     -0.826  0.3757E-01  0.9670E-01  0.1651E+01
     -0.769  0.3714E-01  0.1012E+00  0.1557E+01
     -0.713  0.3612E-01  0.9284E-01  0.1381E+01
     -0.656  0.3328E-01  0.7511E-01  0.1151E+01
     -0.599  0.2911E-01  0.5805E-01  0.9209E+00
     -0.543  0.2540E-01  0.5086E-01  0.7575E+00
     -0.486  0.2376E-01  0.5615E-01  0.7150E+00
     -0.429  0.2442E-01  0.6930E-01  0.8000E+00
     -0.373  0.2613E-01  0.8180E-01  0.9637E+00
     -0.316  0.2723E-01  0.8615E-01  0.1130E+01
     -0.260  0.2691E-01  0.8031E-01  0.1244E+01
     -0.203  0.2566E-01  0.6882E-01  0.1299E+01
     -0.146  0.2460E-01  0.5946E-01  0.1325E+01
     -0.090  0.2436E-01  0.5766E-01  0.1355E+01
     -0.033  0.2461E-01  0.6274E-01  0.1382E+01
      0.023  0.2436E-01  0.6880E-01  0.1369E+01
      0.080  0.2288E-01  0.6944E-01  0.1290E+01
      0.137  0.2039E-01  0.6250E-01  0.1157E+01
      0.193  0.1800E-01  0.5112E-01  0.1022E+01
      0.250  0.1703E-01  0.4106E-01  0.9446E+00
      0.306  0.1823E-01  0.3693E-01  0.9567E+00
      0.363  0.2151E-01  0.4006E-01  0.1049E+01
      0.420  0.2606E-01  0.4835E-01  0.1179E+01
      0.476  0.3064E-01  0.5759E-01  0.1291E+01
      0.533  0.3397E-01  0.6377E-01  0.1353E+01
      0.589  0.3504E-01  0.6513E-01  0.1361E+01
      0.646  0.3332E-01  0.6236E-01  0.1324E+01
      0.703  0.2893E-01  0.5702E-01  0.1243E+01
      0.759  0.2292E-01  0.5043E-01  0.1113E+01
      0.816  0.1759E-01  0.4439E-01  0.9366E+00
      0.872  0.1598E-01  0.4187E-01  0.7453E+00
      0.929  0.2003E-01  0.4551E-01  0.5812E+00
      0.986  0.2844E-01  0.5432E-01  0.4717E+00
      1.042  0.3638E-01  0.6268E-01  0.4152E+00
      1.099  0.3839E-01  0.6389E-01  0.3929E+00
      1.156  0.3244E-01  0.5559E-01  0.3864E+00
      1.212  0.2131E-01  0.4162E-01  0.3819E+00
      1.269  0.1012E-01  0.2850E-01  0.3656E+00
      1.325  0.2820E-02  0.2086E-01  0.3286E+00
      1.382  0.9507E-03  0.2017E-01  0.2796E+00
      1.439  0.4502E-02  0.2606E-01  0.2418E+00
      1.495  0.1248E-01  0.3699E-01  0.2295E+00
      1.552  0.2236E-01  0.4933E-01  0.2325E+00
      1.608  0.3011E-01  0.5738E-01  0.2275E+00
      1.665  0.3205E-01  0.5628E-01  0.2015E+00
      1.722  0.2742E-01  0.4578E-01  0.1604E+00
      1.778  0.1892E-01  0.3080E-01  0.1204E+00
      1.835  0.1060E-01  0.1765E-01  0.9293E-01
      1.891  0.5085E-02  0.9633E-02  0.7760E-01
      1.948  0.2506E-02  0.5993E-02  0.6578E-01
      2.005  0.1548E-02  0.4229E-02  0.5011E-01
      2.061  0.1009E-02  0.2667E-02  0.3058E-01
      2.118  0.4745E-03  0.1113E-02  0.1265E-01
      2.174  0.4080E-04 -0.2529E-04  0.1158E-02
      2.231 -0.1690E-03 -0.5989E-03 -0.3366E-02
      2.288 -0.1883E-03 -0.8210E-03 -0.3564E-02
      2.344 -0.1262E-03 -0.8823E-03 -0.2308E-02
      2.401 -0.6047E-04 -0.5884E-03 -0.1051E-02
      2.457 -0.1227E-04  0.6602E-03  0.2331E-04
      2.514  0.2483E-04  0.3398E-02  0.1153E-02
      2.571  0.5574E-04  0.7329E-02  0.2338E-02
      2.627  0.7528E-04  0.1098E-01  0.3209E-02
      2.684  0.7603E-04  0.1245E-01  0.3343E-02
      2.740  0.5861E-04  0.1089E-01  0.2679E-02
      2.797  0.3313E-04  0.7203E-02  0.1597E-02
      2.854  0.1147E-04  0.3294E-02  0.6161E-03
      2.910 -0.5056E-06  0.6307E-03  0.3417E-04
      2.967 -0.4050E-05 -0.4984E-03 -0.1650E-03
      3.024 -0.3387E-05 -0.6300E-03 -0.1548E-03
      3.080 -0.1840E-05 -0.4072E-03 -0.8926E-04
      3.137 -0.7593E-06 -0.1900E-03 -0.3856E-04
      3.193 -0.2503E-06 -0.6943E-04 -0.1325E-04
      3.250 -0.6753E-07 -0.2054E-04 -0.3718E-05
      3.307 -0.1510E-07 -0.5003E-05 -0.8637E-06
      3.363 -0.2821E-08 -0.1013E-05 -0.1675E-06
      3.420 -0.4425E-09 -0.1715E-06 -0.2728E-07
      3.476 -0.5853E-10 -0.2439E-07 -0.3743E-08
      3.533 -0.6543E-11 -0.2922E-08 -0.4338E-09
      3.590 -0.6195E-12 -0.2954E-09 -0.4256E-10
      3.646 -0.4976E-13 -0.2525E-10 -0.3539E-11
      3.703 -0.3394E-14 -0.1827E-11 -0.2497E-12
      3.759 -0.1968E-15 -0.1120E-12 -0.1496E-13
      3.816 -0.9693E-17 -0.5829E-14 -0.7613E-15
      3.873 -0.4254E-18 -0.2547E-15 -0.3332E-16
      3.929 -0.8137E-20 -0.8769E-17 -0.9454E-18
      3.986  0.0000E+00  0.0000E+00  0.0000E+00
      4.042  0.0000E+00  0.0000E+00  0.0000E+00
      4.099  0.0000E+00  0.0000E+00  0.0000E+00
      4.156  0.0000E+00  0.0000E+00  0.0000E+00
      4.212  0.0000E+00  0.0000E+00  0.0000E+00
      4.269  0.0000E+00  0.0000E+00  0.0000E+00
      4.325  0.0000E+00  0.0000E+00  0.0000E+00
      4.382  0.0000E+00  0.0000E+00  0.0000E+00
      4.439  0.0000E+00  0.0000E+00  0.0000E+00
      4.495  0.0000E+00  0.0000E+00  0.0000E+00
      4.552  0.0000E+00  0.0000E+00  0.0000E+00
      4.609  0.0000E+00  0.0000E+00  0.0000E+00
      4.665  0.0000E+00  0.0000E+00  0.0000E+00
      4.66511376    -12.31687975  301     -0.19844638      1.00000000
    -12.317  0.0000E+00  0.0000E+00  0.0000E+00
    -12.260  0.0000E+00  0.0000E+00  0.0000E+00
    -12.204  0.0000E+00  0.0000E+00  0.0000E+00
    -12.147  0.0000E+00  0.0000E+00  0.0000E+00
    -12.090  0.0000E+00  0.0000E+00  0.0000E+00
    -12.034  0.0000E+00  0.0000E+00  0.0000E+00
    -11.977  0.0000E+00  0.0000E+00  0.0000E+00
    -11.921 -0.3994E-29 -0.5090E-30 -0.2120E-32
    -11.864 -0.3290E-27 -0.4192E-28 -0.1746E-30
    -11.807 -0.2328E-25 -0.2967E-26 -0.1236E-28
    -11.751 -0.1401E-23 -0.1786E-24 -0.7443E-27
    -11.694 -0.7171E-22 -0.9138E-23 -0.3811E-25
    -11.638 -0.3119E-20 -0.3975E-21 -0.1659E-23
    -11.581 -0.1153E-18 -0.1470E-19 -0.6141E-22
    -11.524 -0.3623E-17 -0.4617E-18 -0.1933E-20
    -11.468 -0.9338E-16 -0.1190E-16 -0.4995E-19
    -11.411 -0.2119E-14 -0.2700E-15 -0.1138E-17
    -11.355 -0.4059E-13 -0.5173E-14 -0.2193E-16
    -11.298 -0.6594E-12 -0.8405E-13 -0.3596E-15
    -11.241 -0.9076E-11 -0.1157E-11 -0.5020E-14
    -11.185 -0.1058E-09 -0.1349E-10 -0.5976E-13
    -11.128 -0.1043E-08 -0.1331E-09 -0.6082E-12
    -11.072 -0.8695E-08 -0.1110E-08 -0.5313E-11
    -11.015 -0.6121E-07 -0.7819E-08 -0.4003E-10
    -10.958 -0.3634E-06 -0.4649E-07 -0.2617E-09
    -10.902 -0.1819E-05 -0.2331E-06 -0.1494E-08
    -10.845 -0.7660E-05 -0.9848E-06 -0.7483E-08
    -10.789 -0.2712E-04 -0.3503E-05 -0.3289E-07
    -10.732 -0.8059E-04 -0.1048E-04 -0.1261E-06
    -10.675 -0.1999E-03 -0.2626E-04 -0.4166E-06
    -10.619 -0.4083E-03 -0.5443E-04 -0.1161E-05
    -10.562 -0.6595E-03 -0.8988E-04 -0.2644E-05
    -10.505 -0.7269E-03 -0.1034E-03 -0.4630E-05
    -10.449 -0.8642E-04 -0.2427E-04 -0.5286E-05
    -10.392  0.2052E-02  0.2577E-03 -0.5287E-06
    -10.336  0.6309E-02  0.8325E-03  0.1405E-04
    -10.279  0.1230E-01  0.1651E-02  0.3819E-04
    -10.222  0.1812E-01  0.2454E-02  0.6374E-04
    -10.166  0.2138E-01  0.2911E-02  0.8110E-04
    -10.109  0.2148E-01  0.2952E-02  0.9345E-04
    -10.053  0.2094E-01  0.2942E-02  0.1225E-03
     -9.996  0.2330E-01  0.3383E-02  0.1916E-03
     -9.939  0.2927E-01  0.4364E-02  0.2987E-03
     -9.883  0.3532E-01  0.5362E-02  0.4100E-03
     -9.826  0.3669E-01  0.5679E-02  0.4840E-03
     -9.770  0.3152E-01  0.5034E-02  0.5008E-03
     -9.713  0.2216E-01  0.3750E-02  0.4706E-03
     -9.656  0.1304E-01  0.2466E-02  0.4243E-03
     -9.600  0.7767E-02  0.1732E-02  0.4090E-03
     -9.543  0.7519E-02  0.1792E-02  0.4838E-03
     -9.487  0.1109E-01  0.2542E-02  0.7000E-03
     -9.430  0.1598E-01  0.3642E-02  0.1067E-02
     -9.373  0.1998E-01  0.4717E-02  0.1539E-02
     -9.317  0.2232E-01  0.5553E-02  0.2035E-02
     -9.260  0.2355E-01  0.6127E-02  0.2467E-02
     -9.204  0.2437E-01  0.6423E-02  0.2731E-02
     -9.147  0.2473E-01  0.6280E-02  0.2706E-02
     -9.090  0.2458E-01  0.5541E-02  0.2334E-02
     -9.034  0.2533E-01  0.4427E-02  0.1752E-02
     -8.977  0.2974E-01  0.3624E-02  0.1308E-02
     -8.920  0.3909E-01  0.3836E-02  0.1390E-02
     -8.864  0.5073E-01  0.5208E-02  0.2192E-02
     -8.807  0.5942E-01  0.7248E-02  0.3622E-02
     -8.751  0.6226E-01  0.9318E-02  0.5394E-02
     -8.694  0.6196E-01  0.1112E-01  0.7186E-02
     -8.637  0.6468E-01  0.1270E-01  0.8738E-02
     -8.581  0.7393E-01  0.1401E-01  0.9833E-02
     -8.524  0.8633E-01  0.1462E-01  0.1023E-01
     -8.468  0.9352E-01  0.1396E-01  0.9709E-02
     -8.411  0.8887E-01  0.1192E-01  0.8272E-02
     -8.354  0.7298E-01  0.9173E-02  0.6344E-02
     -8.298  0.5366E-01  0.6980E-02  0.4788E-02
     -8.241  0.4090E-01  0.6663E-02  0.4743E-02
     -8.185  0.4060E-01  0.9056E-02  0.7291E-02
     -8.128  0.5104E-01  0.1399E-01  0.1287E-01
     -8.071  0.6444E-01  0.2003E-01  0.2066E-01
     -8.015  0.7267E-01  0.2501E-01  0.2863E-01
     -7.958  0.7264E-01  0.2713E-01  0.3460E-01
     -7.902  0.6725E-01  0.2601E-01  0.3784E-01
     -7.845  0.6235E-01  0.2273E-01  0.4007E-01
     -7.788  0.6305E-01  0.1928E-01  0.4503E-01
     -7.732  0.7180E-01  0.1769E-01  0.5656E-01
     -7.675  0.8804E-01  0.1940E-01  0.7630E-01
     -7.619  0.1089E+00  0.2457E-01  0.1030E+00
     -7.562  0.1312E+00  0.3189E-01  0.1340E+00
     -7.505  0.1537E+00  0.3924E-01  0.1670E+00
     -7.449  0.1770E+00  0.4483E-01  0.1997E+00
     -7.392  0.2001E+00  0.4802E-01  0.2283E+00
     -7.335  0.2192E+00  0.4934E-01  0.2471E+00
     -7.279  0.2286E+00  0.4991E-01  0.2515E+00