  64  64   1   0
  0.4613438E+02  0.1125815E-08  0.1125817E-08  0.2689670E-08  0.1000000E-15
  1.000000000000000E-004
  CAR 
 unknown system                          
      7.04720826    -10.46486286  301     -1.53978422      1.00000000
    -10.465  0.0000E+00  0.0000E+00
    -10.406  0.0000E+00  0.0000E+00
    -10.348  0.0000E+00  0.0000E+00
    -10.290  0.0000E+00  0.0000E+00
    -10.231  0.0000E+00  0.0000E+00
    -10.173  0.0000E+00  0.0000E+00
    -10.115 -0.7013E-31 -0.4094E-32
    -10.056 -0.7594E-29 -0.4474E-30
     -9.998 -0.6984E-27 -0.4121E-28
     -9.940 -0.5403E-25 -0.3195E-26
     -9.881 -0.3519E-23 -0.2086E-24
     -9.823 -0.1929E-21 -0.1147E-22
     -9.764 -0.8901E-20 -0.5311E-21
     -9.706 -0.3455E-18 -0.2070E-19
     -9.648 -0.1069E-16 -0.6446E-18
     -9.589 -0.3004E-15 -0.1818E-16
     -9.531 -0.6908E-14 -0.4214E-15
     -9.473 -0.1336E-12 -0.8220E-14
     -9.414 -0.2170E-11 -0.1349E-12
     -9.356 -0.2961E-10 -0.1863E-11
     -9.297 -0.3391E-09 -0.2166E-10
     -9.239 -0.3261E-08 -0.2120E-09
     -9.181 -0.2632E-07 -0.1748E-08
     -9.122 -0.1783E-06 -0.1215E-07
     -9.064 -0.1013E-05 -0.7130E-07
     -9.006 -0.4830E-05 -0.3532E-06
     -8.947 -0.1927E-04 -0.1478E-05
     -8.889 -0.6409E-04 -0.5219E-05
     -8.830 -0.1759E-03 -0.1549E-04
     -8.772 -0.3896E-03 -0.3823E-04
     -8.714 -0.6580E-03 -0.7664E-04
     -8.655 -0.7009E-03 -0.1176E-03
     -8.597  0.1017E-03 -0.1116E-03
     -8.539  0.2499E-02  0.3423E-04
     -8.480  0.6704E-02  0.4256E-03
     -8.422  0.1179E-01  0.1114E-02
     -8.363  0.1609E-01  0.2053E-02
     -8.305  0.1873E-01  0.3146E-02
     -8.247  0.2051E-01  0.4343E-02
     -8.188  0.2266E-01  0.5666E-02
     -8.130  0.2479E-01  0.7113E-02
     -8.072  0.2486E-01  0.8564E-02
     -8.013  0.2170E-01  0.9831E-02
     -7.955  0.1705E-01  0.1083E-01
     -7.896  0.1467E-01  0.1168E-01
     -7.838  0.1736E-01  0.1270E-01
     -7.780  0.2490E-01  0.1415E-01
     -7.721  0.3486E-01  0.1618E-01
     -7.663  0.4615E-01  0.1888E-01
     -7.605  0.6218E-01  0.2251E-01
     -7.546  0.9067E-01  0.2780E-01
     -7.488  0.1392E+00  0.3592E-01
     -7.429  0.2093E+00  0.4814E-01
     -7.371  0.2945E+00  0.6533E-01
     -7.313  0.3840E+00  0.8775E-01
     -7.254  0.4678E+00  0.1151E+00
     -7.196  0.5408E+00  0.1466E+00
     -7.138  0.6012E+00  0.1817E+00
     -7.079  0.6483E+00  0.2196E+00
     -7.021  0.6815E+00  0.2593E+00
     -6.962  0.7012E+00  0.3003E+00
     -6.904  0.7101E+00  0.3417E+00
     -6.846  0.7142E+00  0.3834E+00
     -6.787  0.7210E+00  0.4255E+00
     -6.729  0.7341E+00  0.4683E+00
     -6.671  0.7494E+00  0.5121E+00
     -6.612  0.7590E+00  0.5564E+00
     -6.554  0.7590E+00  0.6007E+00
     -6.495  0.7524E+00  0.6446E+00
     -6.437  0.7455E+00  0.6881E+00
     -6.379  0.7415E+00  0.7314E+00
     -6.320  0.7405E+00  0.7747E+00
     -6.262  0.7420E+00  0.8180E+00
     -6.204  0.7476E+00  0.8616E+00
     -6.145  0.7581E+00  0.9059E+00
     -6.087  0.7720E+00  0.9509E+00
     -6.028  0.7866E+00  0.9968E+00
     -5.970  0.8014E+00  0.1044E+01
     -5.912  0.8175E+00  0.1091E+01
     -5.853  0.8357E+00  0.1140E+01
     -5.795  0.8538E+00  0.1190E+01
     -5.737  0.8673E+00  0.1241E+01
     -5.678  0.8730E+00  0.1292E+01
     -5.620  0.8709E+00  0.1342E+01
     -5.561  0.8641E+00  0.1393E+01
     -5.503  0.8565E+00  0.1443E+01
     -5.445  0.8509E+00  0.1492E+01
     -5.386  0.8496E+00  0.1542E+01
     -5.328  0.8547E+00  0.1592E+01
     -5.270  0.8656E+00  0.1643E+01
     -5.211  0.8788E+00  0.1694E+01
     -5.153  0.8880E+00  0.1746E+01
     -5.094  0.8885E+00  0.1798E+01
     -5.036  0.8802E+00  0.1849E+01
     -4.978  0.8674E+00  0.1900E+01
     -4.919  0.8551E+00  0.1949E+01
     -4.861  0.8453E+00  0.1999E+01
     -4.803  0.8352E+00  0.2048E+01
     -4.744  0.8194E+00  0.2095E+01
     -4.686  0.7917E+00  0.2142E+01
     -4.628  0.7465E+00  0.2185E+01
     -4.569  0.6799E+00  0.2225E+01
     -4.511  0.5939E+00  0.2259E+01
     -4.452  0.4985E+00  0.2289E+01
     -4.394  0.4108E+00  0.2313E+01
     -4.336  0.3475E+00  0.2333E+01
     -4.277  0.3172E+00  0.2351E+01
     -4.219  0.3175E+00  0.2370E+01
     -4.161  0.3379E+00  0.2390E+01
     -4.102  0.3654E+00  0.2411E+01
     -4.044  0.3886E+00  0.2434E+01
     -3.985  0.4004E+00  0.2457E+01
     -3.927  0.3993E+00  0.2480E+01
     -3.869  0.3905E+00  0.2503E+01
     -3.810  0.3825E+00  0.2525E+01
     -3.752  0.3824E+00  0.2548E+01
     -3.694  0.3923E+00  0.2571E+01
     -3.635  0.4104E+00  0.2595E+01
     -3.577  0.4325E+00  0.2620E+01
     -3.518  0.4532E+00  0.2646E+01
     -3.460  0.4670E+00  0.2674E+01
     -3.402  0.4716E+00  0.2701E+01
     -3.343  0.4700E+00  0.2729E+01
     -3.285  0.4674E+00  0.2756E+01
     -3.227  0.4667E+00  0.2783E+01
     -3.168  0.4679E+00  0.2810E+01
     -3.110  0.4713E+00  0.2838E+01
     -3.051  0.4798E+00  0.2866E+01
     -2.993  0.4959E+00  0.2895E+01
     -2.935  0.5184E+00  0.2925E+01
     -2.876  0.5421E+00  0.2957E+01
     -2.818  0.5624E+00  0.2990E+01
     -2.760  0.5785E+00  0.3023E+01
     -2.701  0.5922E+00  0.3058E+01
     -2.643  0.6027E+00  0.3093E+01
     -2.584  0.6044E+00  0.3128E+01
     -2.526  0.5908E+00  0.3163E+01
     -2.468  0.5600E+00  0.3196E+01
     -2.409  0.5169E+00  0.3226E+01
     -2.351  0.4688E+00  0.3253E+01
     -2.293  0.4215E+00  0.3278E+01
     -2.234  0.3778E+00  0.3300E+01
     -2.176  0.3377E+00  0.3319E+01
     -2.117  0.2987E+00  0.3337E+01
     -2.059  0.2580E+00  0.3352E+01
     -2.001  0.2153E+00  0.3365E+01
     -1.942  0.1739E+00  0.3375E+01
     -1.884  0.1384E+00  0.3383E+01
     -1.826  0.1127E+00  0.3389E+01
     -1.767  0.9880E-01  0.3395E+01
     -1.709  0.9668E-01  0.3401E+01
     -1.650  0.1038E+00  0.3407E+01
     -1.592  0.1150E+00  0.3414E+01
     -1.534  0.1236E+00  0.3421E+01
     -1.475  0.1257E+00  0.3428E+01
     -1.417  0.1217E+00  0.3435E+01
     -1.359  0.1153E+00  0.3442E+01
     -1.300  0.1088E+00  0.3448E+01
     -1.242  0.1014E+00  0.3454E+01
     -1.183  0.9191E-01  0.3460E+01
     -1.125  0.8220E-01  0.3464E+01
     -1.067  0.7718E-01  0.3469E+01
     -1.008  0.8010E-01  0.3474E+01
     -0.950  0.8926E-01  0.3479E+01
     -0.892  0.9950E-01  0.3485E+01
     -0.833  0.1072E+00  0.3491E+01
     -0.775  0.1129E+00  0.3497E+01
     -0.716  0.1191E+00  0.3504E+01
     -0.658  0.1252E+00  0.3512E+01
     -0.600  0.1267E+00  0.3519E+01
     -0.541  0.1203E+00  0.3526E+01
     -0.483  0.1080E+00  0.3532E+01
     -0.425  0.9563E-01  0.3538E+01
     -0.366  0.8748E-01  0.3543E+01
     -0.308  0.8262E-01  0.3548E+01
     -0.249  0.7772E-01  0.3552E+01
     -0.191  0.7268E-01  0.3557E+01
     -0.133  0.7261E-01  0.3561E+01
     -0.074  0.8337E-01  0.3566E+01
     -0.016  0.1049E+00  0.3572E+01
      0.042  0.1294E+00  0.3579E+01
      0.101  0.1467E+00  0.3588E+01
      0.159  0.1514E+00  0.3597E+01
      0.218  0.1460E+00  0.3605E+01
      0.276  0.1363E+00  0.3613E+01
      0.334  0.1260E+00  0.3621E+01
      0.393  0.1141E+00  0.3627E+01
      0.451  0.9837E-01  0.3633E+01
      0.509  0.8017E-01  0.3638E+01
      0.568  0.6475E-01  0.3642E+01
      0.626  0.5796E-01  0.3645E+01
      0.684  0.6220E-01  0.3649E+01
      0.743  0.7504E-01  0.3653E+01
      0.801  0.9106E-01  0.3658E+01
      0.860  0.1054E+00  0.3664E+01
      0.918  0.1154E+00  0.3671E+01
      0.976  0.1192E+00  0.3678E+01
      1.035  0.1156E+00  0.3685E+01
      1.093  0.1059E+00  0.3691E+01
      1.151  0.9700E-01  0.3697E+01
      1.210  0.9697E-01  0.3702E+01
      1.268  0.1080E+00  0.3709E+01
      1.327  0.1236E+00  0.3716E+01
      1.385  0.1340E+00  0.3724E+01
      1.443  0.1344E+00  0.3732E+01
      1.502  0.1273E+00  0.3739E+01
      1.560  0.1172E+00  0.3746E+01
      1.618  0.1059E+00  0.3752E+01
      1.677  0.9237E-01  0.3757E+01
      1.735  0.7622E-01  0.3762E+01
      1.794  0.6107E-01  0.3765E+01
      1.852  0.5334E-01  0.3769E+01
      1.910  0.5806E-01  0.3772E+01
      1.969  0.7461E-01  0.3776E+01
      2.027  0.9588E-01  0.3782E+01
      2.085  0.1121E+00  0.3788E+01
      2.144  0.1167E+00  0.3795E+01
      2.202  0.1105E+00  0.3802E+01
      2.261  0.9953E-01  0.3808E+01
      2.319  0.8978E-01  0.3813E+01
      2.377  0.8363E-01  0.3818E+01
      2.436  0.8069E-01  0.3822E+01
      2.494  0.8076E-01  0.3827E+01
      2.552  0.8428E-01  0.3832E+01
      2.611  0.9047E-01  0.3837E+01
      2.669  0.9682E-01  0.3843E+01
      2.728  0.1010E+00  0.3849E+01
      2.786  0.1027E+00  0.3855E+01
      2.844  0.1033E+00  0.3861E+01
      2.903  0.1049E+00  0.3867E+01
      2.961  0.1093E+00  0.3873E+01
      3.019  0.1160E+00  0.3880E+01
      3.078  0.1215E+00  0.3887E+01
      3.136  0.1217E+00  0.3894E+01
      3.195  0.1159E+00  0.3901E+01
      3.253  0.1090E+00  0.3907E+01
      3.311  0.1060E+00  0.3914E+01
      3.370  0.1070E+00  0.3920E+01
      3.428  0.1072E+00  0.3926E+01
      3.486  0.1037E+00  0.3932E+01
      3.545  0.9977E-01  0.3938E+01
      3.603  0.1016E+00  0.3944E+01
      3.662  0.1120E+00  0.3950E+01
      3.720  0.1281E+00  0.3958E+01
      3.778  0.1447E+00  0.3966E+01
      3.837  0.1597E+00  0.3976E+01
      3.895  0.1739E+00  0.3986E+01
      3.953  0.1893E+00  0.3997E+01
      4.012  0.2045E+00  0.4009E+01
      4.070  0.2154E+00  0.4021E+01
      4.129  0.2182E+00  0.4034E+01
      4.187  0.2138E+00  0.4047E+01
      4.245  0.2078E+00  0.4059E+01
      4.304  0.2058E+00  0.4071E+01
      4.362  0.2088E+00  0.4083E+01
      4.420  0.2135E+00  0.4095E+01
      4.479  0.2165E+00  0.4108E+01
      4.537  0.2177E+00  0.4121E+01
      4.596  0.2191E+00  0.4134E+01
      4.654  0.2210E+00  0.4146E+01
      4.712  0.2191E+00  0.4159E+01
      4.771  0.2062E+00  0.4171E+01
      4.829  0.1784E+00  0.4182E+01
      4.887  0.1381E+00  0.4190E+01
      4.946  0.9393E-01  0.4195E+01
      5.004  0.5487E-01  0.4198E+01
      5.063  0.2631E-01  0.4200E+01
      5.121  0.8880E-02  0.4201E+01
      5.179  0.2368E-03  0.4201E+01
      5.238 -0.2763E-02  0.4200E+01
      5.296 -0.2855E-02  0.4200E+01
      5.354 -0.1932E-02  0.4200E+01
      5.413 -0.1013E-02  0.4200E+01
      5.471 -0.4298E-03  0.4200E+01
      5.529 -0.1501E-03  0.4200E+01
      5.588 -0.4347E-04  0.4200E+01
      5.646 -0.1049E-04  0.4200E+01
      5.705 -0.2115E-05  0.4200E+01
      5.763 -0.3569E-06  0.4200E+01
      5.821 -0.5049E-07  0.4200E+01
      5.880 -0.5995E-08  0.4200E+01
      5.938 -0.5979E-09  0.4200E+01
      5.996 -0.5013E-10  0.4200E+01
      6.055 -0.3536E-11  0.4200E+01
      6.113 -0.2099E-12  0.4200E+01
      6.172 -0.1048E-13  0.4200E+01
      6.230 -0.4398E-15  0.4200E+01
      6.288 -0.1664E-16  0.4200E+01
      6.347  0.0000E+00  0.4200E+01
      6.405  0.0000E+00  0.4200E+01
      6.463  0.0000E+00  0.4200E+01
      6.522  0.0000E+00  0.4200E+01
      6.580  0.0000E+00  0.4200E+01
      6.639  0.0000E+00  0.4200E+01
      6.697  0.0000E+00  0.4200E+01
      6.755  0.0000E+00  0.4200E+01
      6.814  0.0000E+00  0.4200E+01
      6.872  0.0000E+00  0.4200E+01
      6.930  0.0000E+00  0.4200E+01
      6.989  0.0000E+00  0.4200E+01
      7.047  0.0000E+00  0.4200E+01
      7.04720826    -10.46486286  301     -1.53978422      1.00000000
    -10.465  0.0000E+00  0.0000E+00  0.0000E+00
    -10.406  0.0000E+00  0.0000E+00  0.0000E+00
    -10.348  0.0000E+00  0.0000E+00  0.0000E+00
    -10.290  0.0000E+00  0.0000E+00  0.0000E+00
    -10.231  0.0000E+00  0.0000E+00  0.0000E+00
    -10.173  0.0000E+00  0.0000E+00  0.0000E+00
    -10.115 -0.4078E-31 -0.3185E-32 -0.7393E-33
    -10.056 -0.4415E-29 -0.3449E-30 -0.8005E-31
     -9.998 -0.4060E-27 -0.3172E-28 -0.7363E-29
     -9.940 -0.3141E-25 -0.2454E-26 -0.5698E-27
     -9.881 -0.2046E-23 -0.1599E-24 -0.3712E-25
     -9.823 -0.1122E-21 -0.8765E-23 -0.2035E-23
     -9.764 -0.5174E-20 -0.4044E-21 -0.9392E-22
     -9.706 -0.2008E-18 -0.1570E-19 -0.3647E-20
     -9.648 -0.6212E-17 -0.4859E-18 -0.1129E-18
     -9.589 -0.1746E-15 -0.1366E-16 -0.3174E-17
     -9.531 -0.4014E-14 -0.3143E-15 -0.7306E-16
     -9.473 -0.7761E-13 -0.6083E-14 -0.1415E-14
     -9.414 -0.1260E-11 -0.9891E-13 -0.2302E-13
     -9.356 -0.1718E-10 -0.1351E-11 -0.3148E-12
     -9.297 -0.1967E-09 -0.1551E-10 -0.3618E-11
     -9.239 -0.1889E-08 -0.1495E-09 -0.3495E-10
     -9.181 -0.1523E-07 -0.1211E-08 -0.2838E-09
     -9.122 -0.1030E-06 -0.8246E-08 -0.1939E-08
     -9.064 -0.5839E-06 -0.4718E-07 -0.1114E-07
     -9.006 -0.2774E-05 -0.2268E-06 -0.5386E-07
     -8.947 -0.1103E-04 -0.9149E-06 -0.2188E-06
     -8.889 -0.3648E-04 -0.3084E-05 -0.7441E-06
     -8.830 -0.9948E-04 -0.8607E-05 -0.2099E-05
     -8.772 -0.2185E-03 -0.1946E-04 -0.4810E-05
     -8.714 -0.3643E-03 -0.3384E-04 -0.8538E-05
     -8.655 -0.3762E-03 -0.3836E-04 -0.1016E-04
     -8.597  0.9597E-04 -0.1962E-05 -0.2268E-05
     -8.539  0.1470E-02  0.1142E-03  0.2453E-04
     -8.480  0.3856E-02  0.3235E-03  0.7368E-04
     -8.422  0.6704E-02  0.5827E-03  0.1363E-03
     -8.363  0.9007E-02  0.8149E-03  0.1985E-03
     -8.305  0.1015E-01  0.9875E-03  0.2605E-03
     -8.247  0.1048E-01  0.1152E-02  0.3398E-03
     -8.188  0.1084E-01  0.1366E-02  0.4419E-03
     -8.130  0.1141E-01  0.1576E-02  0.5294E-03
     -8.072  0.1145E-01  0.1641E-02  0.5410E-03
     -8.013  0.1031E-01  0.1487E-02  0.4530E-03
     -7.955  0.8389E-02  0.1246E-02  0.3156E-03
     -7.896  0.7078E-02  0.1190E-02  0.2126E-03
     -7.838  0.7673E-02  0.1509E-02  0.1824E-03
     -7.780  0.1026E-01  0.2121E-02  0.2015E-03
     -7.721  0.1353E-01  0.2690E-02  0.3282E-03
     -7.663  0.1595E-01  0.2884E-02  0.1014E-02
     -7.605  0.1725E-01  0.2689E-02  0.3420E-02
     -7.546  0.1893E-01  0.2509E-02  0.9365E-02
     -7.488  0.2287E-01  0.2914E-02  0.2051E-01
     -7.429  0.2934E-01  0.4233E-02  0.3699E-01
     -7.371  0.3632E-01  0.6320E-02  0.5675E-01
     -7.313  0.4120E-01  0.8743E-02  0.7683E-01
     -7.254  0.4319E-01  0.1119E-01  0.9573E-01
     -7.196  0.4389E-01  0.1370E-01  0.1144E+00
     -7.138  0.4579E-01  0.1648E-01  0.1350E+00
     -7.079  0.5072E-01  0.1963E-01  0.1584E+00
     -7.021  0.5962E-01  0.2303E-01  0.1845E+00
     -6.962  0.7260E-01  0.2645E-01  0.2118E+00
     -6.904  0.8857E-01  0.2962E-01  0.2377E+00
     -6.846  0.1051E+00  0.3224E-01  0.2593E+00
     -6.787  0.1193E+00  0.3405E-01  0.2745E+00
     -6.729  0.1288E+00  0.3477E-01  0.2841E+00
     -6.671  0.1321E+00  0.3423E-01  0.2908E+00
     -6.612  0.1289E+00  0.3251E-01  0.2975E+00
     -6.554  0.1201E+00  0.3014E-01  0.3050E+00
     -6.495  0.1085E+00  0.2803E-01  0.3114E+00
     -6.437  0.9652E-01  0.2687E-01  0.3134E+00
     -6.379  0.8535E-01  0.2666E-01  0.3099E+00
     -6.320  0.7460E-01  0.2672E-01  0.3051E+00
     -6.262  0.6364E-01  0.2634E-01  0.3060E+00
     -6.204  0.5275E-01  0.2533E-01  0.3166E+00
     -6.145  0.4308E-01  0.2398E-01  0.3339E+00
     -6.087  0.3570E-01  0.2272E-01  0.3511E+00
     -6.028  0.3100E-01  0.2178E-01  0.3638E+00
     -5.970  0.2892E-01  0.2134E-01  0.3744E+00
     -5.912  0.2944E-01  0.2168E-01  0.3893E+00
     -5.853  0.3239E-01  0.2306E-01  0.4131E+00
     -5.795  0.3693E-01  0.2532E-01  0.4455E+00
     -5.737  0.4152E-01  0.2783E-01  0.4813E+00
     -5.678  0.4459E-01  0.2977E-01  0.5131E+00
     -5.620  0.4515E-01  0.3059E-01  0.5336E+00
     -5.561  0.4308E-01  0.3030E-01  0.5383E+00
     -5.503  0.3910E-01  0.2932E-01  0.5278E+00
     -5.445  0.3452E-01  0.2828E-01  0.5094E+00
     -5.386  0.3066E-01  0.2772E-01  0.4934E+00
     -5.328  0.2819E-01  0.2783E-01  0.4872E+00
     -5.270  0.2691E-01  0.2827E-01  0.4912E+00
     -5.211  0.2607E-01  0.2848E-01  0.5000E+00
     -5.153  0.2512E-01  0.2806E-01  0.5072E+00
     -5.094  0.2408E-01  0.2701E-01  0.5074E+00
     -5.036  0.2349E-01  0.2543E-01  0.4977E+00
     -4.978  0.2383E-01  0.2342E-01  0.4775E+00
     -4.919  0.2498E-01  0.2118E-01  0.4490E+00
     -4.861  0.2629E-01  0.1913E-01  0.4169E+00
     -4.803  0.2719E-01  0.1770E-01  0.3859E+00
     -4.744  0.2767E-01  0.1700E-01  0.3589E+00
     -4.686  0.2815E-01  0.1680E-01  0.3352E+00
     -4.628  0.2909E-01  0.1668E-01  0.3114E+00
     -4.569  0.3105E-01  0.1636E-01  0.2871E+00
     -4.511  0.3480E-01  0.1587E-01  0.2730E+00
     -4.452  0.4076E-01  0.1560E-01  0.2938E+00
     -4.394  0.4788E-01  0.1621E-01  0.3816E+00
     -4.336  0.5352E-01  0.1825E-01  0.5617E+00
     -4.277  0.5524E-01  0.2178E-01  0.8370E+00
     -4.219  0.5299E-01  0.2606E-01  0.1177E+01
     -4.161  0.4927E-01  0.2973E-01  0.1518E+01
     -4.102  0.4686E-01  0.3151E-01  0.1783E+01
     -4.044  0.4659E-01  0.3107E-01  0.1909E+01
     -3.985  0.4723E-01  0.2918E-01  0.1877E+01
     -3.927  0.4717E-01  0.2712E-01  0.1725E+01
     -3.869  0.4590E-01  0.2578E-01  0.1536E+01
     -3.810  0.4407E-01  0.2504E-01  0.1406E+01
     -3.752  0.4276E-01  0.2408E-01  0.1403E+01
     -3.694  0.4273E-01  0.2228E-01  0.1558E+01
     -3.635  0.4382E-01  0.1997E-01  0.1862E+01
     -3.577  0.4471E-01  0.1809E-01  0.2265E+01
     -3.518  0.4352E-01  0.1720E-01  0.2671E+01
     -3.460  0.3937E-01  0.1700E-01  0.2972E+01
     -3.402  0.3350E-01  0.1679E-01  0.3121E+01
     -3.343  0.2853E-01  0.1632E-01  0.3161E+01
     -3.285  0.2657E-01  0.1597E-01  0.3193E+01
     -3.227  0.2801E-01  0.1643E-01  0.3293E+01
     -3.168  0.3186E-01  0.1812E-01  0.3480E+01
     -3.110  0.3684E-01  0.2107E-01  0.3730E+01
     -3.051  0.4184E-01  0.2485E-01  0.4004E+01
     -2.993  0.4595E-01  0.2869E-01  0.4245E+01
     -2.935  0.4850E-01  0.3162E-01  0.4371E+01
     -2.876  0.4922E-01  0.3295E-01  0.4296E+01
     -2.818  0.4824E-01  0.3269E-01  0.3992E+01
     -2.760  0.4585E-01  0.3146E-01  0.3544E+01
     -2.701  0.4243E-01  0.2999E-01  0.3143E+01
     -2.643  0.3874E-01  0.2865E-01  0.3000E+01
     -2.584  0.3618E-01  0.2742E-01  0.3230E+01
     -2.526  0.3633E-01  0.2615E-01  0.3768E+01
     -2.468  0.3985E-01  0.2485E-01  0.4387E+01
     -2.409  0.4560E-01  0.2364E-01  0.4794E+01
     -2.351  0.5093E-01  0.2257E-01  0.4787E+01
     -2.293  0.5309E-01  0.2159E-01  0.4364E+01
     -2.234  0.5091E-01  0.2078E-01  0.3711E+01
     -2.176  0.4536E-01  0.2046E-01  0.3058E+01
     -2.117  0.3867E-01  0.2096E-01  0.2532E+01
     -2.059  0.3287E-01  0.2233E-01  0.2112E+01
     -2.001  0.2885E-01  0.2420E-01  0.1727E+01
     -1.942  0.2642E-01  0.2593E-01  0.1345E+01
     -1.884  0.2481E-01  0.2691E-01  0.9875E+00
     -1.826  0.2348E-01  0.2682E-01  0.6922E+00
     -1.767  0.2280E-01  0.2579E-01  0.4832E+00
     -1.709  0.2391E-01  0.2444E-01  0.3681E+00
     -1.650  0.2748E-01  0.2365E-01  0.3397E+00
     -1.592  0.3254E-01  0.2412E-01  0.3737E+00
     -1.534  0.3680E-01  0.2600E-01  0.4303E+00
     -1.475  0.3859E-01  0.2900E-01  0.4685E+00
     -1.417  0.3825E-01  0.3266E-01  0.4652E+00
     -1.359  0.3721E-01  0.3635E-01  0.4242E+00
     -1.300  0.3599E-01  0.3900E-01  0.3672E+00
     -1.242  0.3381E-01  0.3950E-01  0.3141E+00
     -1.183  0.3029E-01  0.3779E-01  0.2729E+00
     -1.125  0.2693E-01  0.3525E-01  0.2435E+00
     -1.067  0.2648E-01  0.3379E-01  0.2250E+00
     -1.008  0.3081E-01  0.3433E-01  0.2174E+00
     -0.950  0.3919E-01  0.3641E-01  0.2186E+00
     -0.892  0.4818E-01  0.3885E-01  0.2220E+00
     -0.833  0.5337E-01  0.4096E-01  0.2198E+00
     -0.775  0.5219E-01  0.4321E-01  0.2080E+00
     -0.716  0.4534E-01  0.4686E-01  0.1878E+00
     -0.658  0.3584E-01  0.5249E-01  0.1639E+00
     -0.600  0.2703E-01  0.5873E-01  0.1428E+00
     -0.541  0.2131E-01  0.6236E-01  0.1332E+00
     -0.483  0.1982E-01  0.6030E-01  0.1440E+00
     -0.425  0.2206E-01  0.5219E-01  0.1754E+00
     -0.366  0.2567E-01  0.4109E-01  0.2126E+00
     -0.308  0.2746E-01  0.3129E-01  0.2314E+00
     -0.249  0.2583E-01  0.2549E-01  0.2159E+00
     -0.191  0.2240E-01  0.2434E-01  0.1730E+00
     -0.133  0.2096E-01  0.2810E-01  0.1274E+00
     -0.074  0.2425E-01  0.3754E-01  0.1028E+00
     -0.016  0.3165E-01  0.5261E-01  0.1069E+00
      0.042  0.4007E-01  0.7056E-01  0.1309E+00
      0.101  0.4682E-01  0.8612E-01  0.1606E+00
      0.159  0.5148E-01  0.9429E-01  0.1853E+00
      0.218  0.5491E-01  0.9375E-01  0.2010E+00
      0.276  0.5708E-01  0.8754E-01  0.2061E+00
      0.334  0.5628E-01  0.8006E-01  0.1982E+00
      0.393  0.5055E-01  0.7316E-01  0.1754E+00
      0.451  0.3986E-01  0.6532E-01  0.1405E+00
      0.509  0.2680E-01  0.5483E-01  0.1025E+00
      0.568  0.1541E-01  0.4289E-01  0.7301E-01
      0.626  0.9112E-02  0.3326E-01  0.6082E-01
      0.684  0.8855E-02  0.2939E-01  0.6773E-01
      0.743  0.1260E-01  0.3250E-01  0.8764E-01
      0.801  0.1672E-01  0.4199E-01  0.1094E+00
      0.860  0.1856E-01  0.5592E-01  0.1231E+00
      0.918  0.1793E-01  0.7051E-01  0.1258E+00
      0.976  0.1642E-01  0.8023E-01  0.1204E+00
      1.035  0.1553E-01  0.8074E-01  0.1107E+00
      1.093  0.1615E-01  0.7328E-01  0.1001E+00
      1.151  0.1910E-01  0.6502E-01  0.9347E-01
      1.210  0.2514E-01  0.6368E-01  0.9755E-01
      1.268  0.3348E-01  0.7101E-01  0.1151E+00
      1.327  0.4100E-01  0.8173E-01  0.1401E+00
      1.385  0.4392E-01  0.8875E-01  0.1604E+00
      1.443  0.4084E-01  0.8896E-01  0.1663E+00
      1.502  0.3385E-01  0.8430E-01  0.1566E+00
      1.560  0.2658E-01  0.7824E-01  0.1372E+00
      1.618  0.2134E-01  0.7199E-01  0.1147E+00
      1.677  0.1808E-01  0.6417E-01  0.9288E-01
      1.735  0.1557E-01  0.5373E-01  0.7323E-01
      1.794  0.1319E-01  0.4281E-01  0.5783E-01
      1.852  0.1167E-01  0.3617E-01  0.4996E-01
      1.910  0.1233E-01  0.3738E-01  0.5201E-01
      1.969  0.1561E-01  0.4568E-01  0.6276E-01
      2.027  0.2016E-01  0.5649E-01  0.7685E-01
      2.085  0.2349E-01  0.6497E-01  0.8750E-01
      2.144  0.2372E-01  0.6888E-01  0.9072E-01
      2.202  0.2075E-01  0.6889E-01  0.8752E-01
      2.261  0.1601E-01  0.6676E-01  0.8211E-01
      2.319  0.1115E-01  0.6376E-01  0.7752E-01
      2.377  0.7181E-02  0.6029E-01  0.7336E-01
      2.436  0.4636E-02  0.5644E-01  0.6788E-01
      2.494  0.3965E-02  0.5256E-01  0.6142E-01
      2.552  0.5395E-02  0.4909E-01  0.5670E-01
      2.611  0.8500E-02  0.4618E-01  0.5587E-01
      2.669  0.1211E-01  0.4385E-01  0.5826E-01
      2.728  0.1487E-01  0.4218E-01  0.6128E-01
      2.786  0.1599E-01  0.4118E-01  0.6297E-01
      2.844  0.1575E-01  0.4075E-01  0.6342E-01
      2.903  0.1509E-01  0.4110E-01  0.6419E-01
      2.961  0.1487E-01  0.4275E-01  0.6638E-01
      3.019  0.1534E-01  0.4550E-01  0.6912E-01
      3.078  0.1614E-01  0.4763E-01  0.6991E-01
      3.136  0.1674E-01  0.4691E-01  0.6679E-01
      3.195  0.1682E-01  0.4299E-01  0.6053E-01
      3.253  0.1636E-01  0.3797E-01  0.5411E-01
      3.311  0.1543E-01  0.3405E-01  0.4969E-01
      3.370  0.1392E-01  0.3109E-01  0.4634E-01
      3.428  0.1170E-01  0.2741E-01  0.4169E-01
      3.486  0.9032E-02  0.2251E-01  0.3517E-01
      3.545  0.6796E-02  0.1819E-01  0.2930E-01
      3.603  0.6253E-02  0.1678E-01  0.2769E-01
      3.662  0.8530E-02  0.1899E-01  0.3247E-01
      3.720  0.1422E-01  0.2357E-01  0.4307E-01
      3.778  0.2296E-01  0.2851E-01  0.5660E-01
      3.837  0.3299E-01  0.3249E-01  0.6910E-01
      3.895  0.4164E-01  0.3545E-01  0.7756E-01
      3.953  0.4666E-01  0.3809E-01  0.8146E-01
      4.012  0.4759E-01  0.4072E-01  0.8248E-01
      4.070  0.4608E-01  0.4262E-01  0.8270E-01
      4.129  0.4508E-01  0.4278E-01  0.8359E-01
      4.187  0.4784E-01  0.4108E-01  0.8644E-01
      4.245  0.5663E-01  0.3897E-01  0.9265E-01
      4.304  0.7136E-01  0.3874E-01  0.1022E+00
      4.362  0.8879E-01  0.4188E-01  0.1124E+00
      4.420  0.1030E+00  0.4789E-01  0.1187E+00
      4.479  0.1081E+00  0.5432E-01  0.1179E+00
      4.537  0.1013E+00  0.5826E-01  0.1104E+00
      4.596  0.8652E-01  0.5826E-01  0.9978E-01
      4.654  0.7178E-01  0.5508E-01  0.9053E-01
      4.712  0.6380E-01  0.5037E-01  0.8456E-01
      4.771  0.6227E-01  0.4477E-01  0.7961E-01
      4.829  0.6067E-01  0.3762E-01  0.7113E-01
      4.887  0.5272E-01  0.2851E-01  0.5661E-01
      4.946  0.3793E-01  0.1852E-01  0.3804E-01
      5.004  0.2121E-01  0.9743E-02  0.2032E-01
      5.063  0.8046E-02  0.3710E-02  0.7495E-02
      5.121  0.7168E-03  0.5556E-03  0.6110E-03
      5.179 -0.1826E-02 -0.5854E-03 -0.1782E-02
      5.238 -0.1866E-02 -0.7249E-03 -0.1850E-02
      5.296 -0.1179E-02 -0.5312E-03 -0.1204E-02
      5.354 -0.5774E-03 -0.3090E-03 -0.6102E-03
      5.413 -0.2342E-03 -0.1512E-03 -0.2557E-03
      5.471 -0.8072E-04 -0.6293E-04 -0.9068E-04
      5.529 -0.2390E-04 -0.2219E-04 -0.2747E-04
      5.588 -0.6095E-05 -0.6595E-05 -0.7126E-05
      5.646 -0.1337E-05 -0.1648E-05 -0.1583E-05
      5.705 -0.2519E-06 -0.3452E-06 -0.3006E-06
      5.763 -0.4058E-07 -0.6062E-07 -0.4869E-07
      5.821 -0.5576E-08 -0.8921E-08 -0.6709E-08
      5.880 -0.6516E-09 -0.1101E-08 -0.7848E-09
      5.938 -0.6461E-10 -0.1139E-09 -0.7778E-10
      5.996 -0.5427E-11 -0.9886E-11 -0.6522E-11
      6.055 -0.3855E-12 -0.7205E-12 -0.4622E-12
      6.113 -0.2313E-13 -0.4410E-13 -0.2765E-13
      6.172 -0.1169E-14 -0.2267E-14 -0.1395E-14
      6.230 -0.4976E-16 -0.9759E-16 -0.5814E-16
      6.288 -0.1836E-17 -0.3834E-17 -0.2288E-17
      6.347  0.0000E+00  0.0000E+00  0.0000E+00
      6.405  0.0000E+00  0.0000E+00  0.0000E+00
      6.463  0.0000E+00  0.0000E+00  0.0000E+00
      6.522  0.0000E+00  0.0000E+00  0.0000E+00
      6.580  0.0000E+00  0.0000E+00  0.0000E+00
      6.639  0.0000E+00  0.0000E+00  0.0000E+00
      6.697  0.0000E+00  0.0000E+00  0.0000E+00
      6.755  0.0000E+00  0.0000E+00  0.0000E+00
      6.814  0.0000E+00  0.0000E+00  0.0000E+00
      6.872  0.0000E+00  0.0000E+00  0.0000E+00
      6.930  0.0000E+00  0.0000E+00  0.0000E+00
      6.989  0.0000E+00  0.0000E+00  0.0000E+00
      7.047  0.0000E+00  0.0000E+00  0.0000E+00
      7.04720826    -10.46486286  301     -1.53978422      1.00000000
    -10.465  0.0000E+00  0.0000E+00  0.0000E+00
    -10.406  0.0000E+00  0.0000E+00  0.0000E+00
    -10.348  0.0000E+00  0.0000E+00  0.0000E+00
    -10.290  0.0000E+00  0.0000E+00  0.0000E+00
    -10.231  0.0000E+00  0.0000E+00  0.0000E+00
    -10.173  0.0000E+00  0.0000E+00  0.0000E+00
    -10.115 -0.3976E-31 -0.2805E-32 -0.1371E-32
    -10.056 -0.4306E-29 -0.3037E-30 -0.1485E-30
     -9.998 -0.3959E-27 -0.2794E-28 -0.1365E-28
     -9.940 -0.3063E-25 -0.2162E-26 -0.1056E-26
     -9.881 -0.1995E-23 -0.1408E-24 -0.6881E-25
     -9.823 -0.1094E-21 -0.7720E-23 -0.3773E-23
     -9.764 -0.5046E-20 -0.3562E-21 -0.1741E-21
     -9.706 -0.1958E-18 -0.1383E-19 -0.6758E-20
     -9.648 -0.6058E-17 -0.4280E-18 -0.2091E-18
     -9.589 -0.1702E-15 -0.1203E-16 -0.5878E-17
     -9.531 -0.3914E-14 -0.2769E-15 -0.1352E-15
     -9.473 -0.7567E-13 -0.5361E-14 -0.2617E-14
     -9.414 -0.1229E-11 -0.8719E-13 -0.4254E-13
     -9.356 -0.1675E-10 -0.1192E-11 -0.5809E-12
     -9.297 -0.1917E-09 -0.1368E-10 -0.6663E-11
     -9.239 -0.1841E-08 -0.1320E-09 -0.6420E-10
     -9.181 -0.1484E-07 -0.1070E-08 -0.5195E-09
     -9.122 -0.1003E-06 -0.7294E-08 -0.3532E-08
     -9.064 -0.5685E-06 -0.4179E-07 -0.2017E-07
     -9.006 -0.2700E-05 -0.2013E-06 -0.9677E-07
     -8.947 -0.1072E-04 -0.8141E-06 -0.3893E-06
     -8.889 -0.3545E-04 -0.2753E-05 -0.1308E-05
     -8.830 -0.9656E-04 -0.7709E-05 -0.3635E-05
     -8.772 -0.2117E-03 -0.1751E-04 -0.8182E-05
     -8.714 -0.3523E-03 -0.3062E-04 -0.1416E-04
     -8.655 -0.3616E-03 -0.3512E-04 -0.1596E-04
     -8.597  0.1002E-03 -0.3064E-05 -0.7597E-06
     -8.539  0.1437E-02  0.1008E-03  0.4722E-04
     -8.480  0.3755E-02  0.2889E-03  0.1330E-03
     -8.422  0.6510E-02  0.5229E-03  0.2390E-03
     -8.363  0.8715E-02  0.7348E-03  0.3356E-03
     -8.305  0.9753E-02  0.8978E-03  0.4141E-03
     -8.247  0.9977E-02  0.1060E-02  0.4992E-03
     -8.188  0.1021E-01  0.1271E-02  0.6105E-03
     -8.130  0.1066E-01  0.1478E-02  0.7113E-03
     -8.072  0.1068E-01  0.1543E-02  0.7205E-03
     -8.013  0.9665E-02  0.1406E-02  0.5886E-03
     -7.955  0.7999E-02  0.1201E-02  0.3545E-03
     -7.896  0.6855E-02  0.1182E-02  0.1262E-03
     -7.838  0.7211E-02  0.1507E-02  0.4924E-04
     -7.780  0.9090E-02  0.2072E-02  0.3651E-03
     -7.721  0.1171E-01  0.2564E-02  0.1544E-02
     -7.663  0.1426E-01  0.2723E-02  0.4310E-02
     -7.605  0.1643E-01  0.2608E-02  0.9434E-02
     -7.546  0.1833E-01  0.2617E-02  0.1745E-01
     -7.488  0.2022E-01  0.3215E-02  0.2853E-01
     -7.429  0.2246E-01  0.4559E-02  0.4232E-01
     -7.371  0.2560E-01  0.6377E-02  0.5776E-01
     -7.313  0.3033E-01  0.8202E-02  0.7313E-01
     -7.254  0.3706E-01  0.9776E-02  0.8687E-01
     -7.196  0.4530E-01  0.1122E-01  0.9896E-01
     -7.138  0.5357E-01  0.1288E-01  0.1114E+00
     -7.079  0.6043E-01  0.1501E-01  0.1268E+00
     -7.021  0.6548E-01  0.1760E-01  0.1461E+00
     -6.962  0.6938E-01  0.2039E-01  0.1663E+00
     -6.904  0.7298E-01  0.2290E-01  0.1824E+00
     -6.846  0.7683E-01  0.2462E-01  0.1907E+00
     -6.787  0.8123E-01  0.2527E-01  0.1931E+00
     -6.729  0.8610E-01  0.2500E-01  0.1956E+00
     -6.671  0.9078E-01  0.2436E-01  0.2039E+00
     -6.612  0.9418E-01  0.2396E-01  0.2194E+00
     -6.554  0.9538E-01  0.2408E-01  0.2391E+00
     -6.495  0.9371E-01  0.2461E-01  0.2578E+00
     -6.437  0.8872E-01  0.2516E-01  0.2721E+00
     -6.379  0.8046E-01  0.2541E-01  0.2832E+00
     -6.320  0.7005E-01  0.2531E-01  0.2972E+00
     -6.262  0.5953E-01  0.2506E-01  0.3212E+00
     -6.204  0.5092E-01  0.2483E-01  0.3578E+00
     -6.145  0.4506E-01  0.2468E-01  0.4019E+00
     -6.087  0.4154E-01  0.2450E-01  0.4431E+00
     -6.028  0.3955E-01  0.2419E-01  0.4719E+00
     -5.970  0.3873E-01  0.2385E-01  0.4833E+00
     -5.912  0.3914E-01  0.2375E-01  0.4772E+00
     -5.853  0.4055E-01  0.2416E-01  0.4568E+00
     -5.795  0.4203E-01  0.2510E-01  0.4276E+00
     -5.737  0.4234E-01  0.2622E-01  0.3977E+00
     -5.678  0.4090E-01  0.2691E-01  0.3752E+00
     -5.620  0.3833E-01  0.2665E-01  0.3647E+00
     -5.561  0.3584E-01  0.2530E-01  0.3638E+00
     -5.503  0.3434E-01  0.2321E-01  0.3649E+00
     -5.445  0.3417E-01  0.2107E-01  0.3606E+00
     -5.386  0.3573E-01  0.1956E-01  0.3494E+00
     -5.328  0.3972E-01  0.1907E-01  0.3355E+00
     -5.270  0.4630E-01  0.1958E-01  0.3266E+00