  64  64   1   0
  0.4429083E+02  0.1105297E-08  0.1106077E-08  0.2677187E-08  0.1000000E-15
  1.000000000000000E-004
  CAR 
 unknown system                          
      6.13474911    -11.91730250  301     -1.24462721      1.00000000
    -11.917  0.0000E+00  0.0000E+00
    -11.857  0.0000E+00  0.0000E+00
    -11.797  0.0000E+00  0.0000E+00
    -11.737  0.0000E+00  0.0000E+00
    -11.677  0.0000E+00  0.0000E+00
    -11.616  0.0000E+00  0.0000E+00
    -11.556 -0.1643E-30 -0.9884E-32
    -11.496 -0.1986E-28 -0.1205E-29
    -11.436 -0.2015E-26 -0.1224E-27
    -11.376 -0.1702E-24 -0.1036E-25
    -11.316 -0.1197E-22 -0.7306E-24
    -11.255 -0.7009E-21 -0.4291E-22
    -11.195 -0.3417E-19 -0.2099E-20
    -11.135 -0.1386E-17 -0.8550E-19
    -11.075 -0.4563E-16 -0.2831E-17
    -11.015 -0.1270E-14 -0.7927E-16
    -10.955 -0.2954E-13 -0.1857E-14
    -10.894 -0.5708E-12 -0.3620E-13
    -10.834 -0.9158E-11 -0.5873E-12
    -10.774 -0.1220E-09 -0.7927E-11
    -10.714 -0.1348E-08 -0.8905E-10
    -10.654 -0.1236E-07 -0.8328E-09
    -10.593 -0.9398E-07 -0.6488E-08
    -10.533 -0.5925E-06 -0.4214E-07
    -10.473 -0.3096E-05 -0.2284E-06
    -10.413 -0.1339E-04 -0.1034E-05
    -10.353 -0.4781E-04 -0.3911E-05
    -10.293 -0.1399E-03 -0.1233E-04
    -10.232 -0.3290E-03 -0.3212E-04
    -10.172 -0.5935E-03 -0.6784E-04
    -10.112 -0.7029E-03 -0.1101E-03
    -10.052 -0.7825E-04 -0.1148E-03
     -9.992  0.2074E-02  0.9976E-05
     -9.932  0.6150E-02  0.3800E-03
     -9.871  0.1146E-01  0.1070E-02
     -9.811  0.1647E-01  0.2060E-02
     -9.751  0.2012E-01  0.3271E-02
     -9.691  0.2259E-01  0.4630E-02
     -9.631  0.2416E-01  0.6084E-02
     -9.571  0.2386E-01  0.7520E-02
     -9.510  0.2045E-01  0.8750E-02
     -9.450  0.1476E-01  0.9638E-02
     -9.390  0.9895E-02  0.1023E-01
     -9.330  0.8672E-02  0.1076E-01
     -9.270  0.1123E-01  0.1143E-01
     -9.209  0.1527E-01  0.1235E-01
     -9.149  0.1844E-01  0.1346E-01
     -9.089  0.2036E-01  0.1468E-01
     -9.029  0.2241E-01  0.1603E-01
     -8.969  0.2531E-01  0.1756E-01
     -8.909  0.2778E-01  0.1923E-01
     -8.848  0.2778E-01  0.2090E-01
     -8.788  0.2509E-01  0.2241E-01
     -8.728  0.2188E-01  0.2373E-01
     -8.668  0.2081E-01  0.2498E-01
     -8.608  0.2314E-01  0.2637E-01
     -8.548  0.2856E-01  0.2809E-01
     -8.487  0.3597E-01  0.3025E-01
     -8.427  0.4364E-01  0.3288E-01
     -8.367  0.4906E-01  0.3583E-01
     -8.307  0.4987E-01  0.3883E-01
     -8.247  0.4576E-01  0.4159E-01
     -8.187  0.3935E-01  0.4395E-01
     -8.126  0.3485E-01  0.4605E-01
     -8.066  0.3543E-01  0.4818E-01
     -8.006  0.4126E-01  0.5067E-01
     -7.946  0.4988E-01  0.5367E-01
     -7.886  0.5815E-01  0.5717E-01
     -7.826  0.6451E-01  0.6105E-01
     -7.765  0.7000E-01  0.6526E-01
     -7.705  0.7742E-01  0.6992E-01
     -7.645  0.8967E-01  0.7531E-01
     -7.585  0.1084E+00  0.8184E-01
     -7.525  0.1332E+00  0.8985E-01
     -7.464  0.1607E+00  0.9952E-01
     -7.404  0.1852E+00  0.1107E+00
     -7.344  0.2026E+00  0.1229E+00
     -7.284  0.2122E+00  0.1356E+00
     -7.224  0.2167E+00  0.1487E+00
     -7.164  0.2187E+00  0.1618E+00
     -7.103  0.2194E+00  0.1750E+00
     -7.043  0.2211E+00  0.1883E+00
     -6.983  0.2288E+00  0.2021E+00
     -6.923  0.2495E+00  0.2171E+00
     -6.863  0.2860E+00  0.2343E+00
     -6.803  0.3330E+00  0.2544E+00
     -6.742  0.3781E+00  0.2771E+00
     -6.682  0.4094E+00  0.3017E+00
     -6.622  0.4222E+00  0.3271E+00
     -6.562  0.4214E+00  0.3525E+00
     -6.502  0.4169E+00  0.3776E+00
     -6.442  0.4162E+00  0.4026E+00
     -6.381  0.4211E+00  0.4280E+00
     -6.321  0.4287E+00  0.4538E+00
     -6.261  0.4346E+00  0.4799E+00
     -6.201  0.4354E+00  0.5061E+00
     -6.141  0.4300E+00  0.5320E+00
     -6.080  0.4195E+00  0.5572E+00
     -6.020  0.4067E+00  0.5817E+00
     -5.960  0.3951E+00  0.6055E+00
     -5.900  0.3877E+00  0.6288E+00
     -5.840  0.3875E+00  0.6521E+00
     -5.780  0.3961E+00  0.6760E+00
     -5.719  0.4113E+00  0.7007E+00
     -5.659  0.4255E+00  0.7263E+00
     -5.599  0.4310E+00  0.7522E+00
     -5.539  0.4247E+00  0.7778E+00
     -5.479  0.4108E+00  0.8025E+00
     -5.419  0.3962E+00  0.8264E+00
     -5.358  0.3875E+00  0.8497E+00
     -5.298  0.3900E+00  0.8731E+00
     -5.238  0.4037E+00  0.8974E+00
     -5.178  0.4218E+00  0.9228E+00
     -5.118  0.4345E+00  0.9490E+00
     -5.058  0.4392E+00  0.9754E+00
     -4.997  0.4445E+00  0.1002E+01
     -4.937  0.4612E+00  0.1030E+01
     -4.877  0.4896E+00  0.1059E+01
     -4.817  0.5173E+00  0.1090E+01
     -4.757  0.5319E+00  0.1122E+01
     -4.696  0.5331E+00  0.1155E+01
     -4.636  0.5316E+00  0.1187E+01
     -4.576  0.5376E+00  0.1219E+01
     -4.516  0.5522E+00  0.1252E+01
     -4.456  0.5687E+00  0.1286E+01
     -4.396  0.5816E+00  0.1321E+01
     -4.335  0.5924E+00  0.1357E+01
     -4.275  0.6084E+00  0.1394E+01
     -4.215  0.6361E+00  0.1432E+01
     -4.155  0.6755E+00  0.1473E+01
     -4.095  0.7189E+00  0.1516E+01
     -4.035  0.7553E+00  0.1561E+01
     -3.974  0.7759E+00  0.1608E+01
     -3.914  0.7790E+00  0.1655E+01
     -3.854  0.7672E+00  0.1701E+01
     -3.794  0.7421E+00  0.1746E+01
     -3.734  0.7023E+00  0.1788E+01
     -3.674  0.6469E+00  0.1827E+01
     -3.613  0.5802E+00  0.1862E+01
     -3.553  0.5107E+00  0.1892E+01
     -3.493  0.4491E+00  0.1919E+01
     -3.433  0.4077E+00  0.1944E+01
     -3.373  0.3983E+00  0.1968E+01
     -3.312  0.4255E+00  0.1994E+01
     -3.252  0.4812E+00  0.2023E+01
     -3.192  0.5475E+00  0.2055E+01
     -3.132  0.6053E+00  0.2092E+01
     -3.072  0.6407E+00  0.2130E+01
     -3.012  0.6439E+00  0.2169E+01
     -2.951  0.6125E+00  0.2206E+01
     -2.891  0.5565E+00  0.2240E+01
     -2.831  0.4980E+00  0.2270E+01
     -2.771  0.4578E+00  0.2297E+01
     -2.711  0.4413E+00  0.2324E+01
     -2.651  0.4408E+00  0.2350E+01
     -2.590  0.4503E+00  0.2377E+01
     -2.530  0.4727E+00  0.2406E+01
     -2.470  0.5112E+00  0.2436E+01
     -2.410  0.5597E+00  0.2470E+01
     -2.350  0.6083E+00  0.2507E+01
     -2.290  0.6507E+00  0.2546E+01
     -2.229  0.6825E+00  0.2587E+01
     -2.169  0.6938E+00  0.2629E+01
     -2.109  0.6732E+00  0.2669E+01
     -2.049  0.6195E+00  0.2706E+01
     -1.989  0.5492E+00  0.2740E+01
     -1.929  0.4912E+00  0.2769E+01
     -1.868  0.4710E+00  0.2797E+01
     -1.808  0.4967E+00  0.2827E+01
     -1.748  0.5554E+00  0.2861E+01
     -1.688  0.6207E+00  0.2898E+01
     -1.628  0.6652E+00  0.2938E+01
     -1.567  0.6758E+00  0.2979E+01
     -1.507  0.6641E+00  0.3019E+01
     -1.447  0.6579E+00  0.3058E+01
     -1.387  0.6757E+00  0.3099E+01
     -1.327  0.7060E+00  0.3141E+01
     -1.267  0.7166E+00  0.3185E+01
     -1.206  0.6849E+00  0.3226E+01
     -1.146  0.6175E+00  0.3263E+01
     -1.086  0.5395E+00  0.3295E+01
     -1.026  0.4685E+00  0.3324E+01
     -0.966  0.4028E+00  0.3348E+01
     -0.906  0.3313E+00  0.3368E+01
     -0.845  0.2505E+00  0.3383E+01
     -0.785  0.1700E+00  0.3393E+01
     -0.725  0.1057E+00  0.3399E+01
     -0.665  0.6991E-01  0.3404E+01
     -0.605  0.6453E-01  0.3408E+01
     -0.545  0.7885E-01  0.3412E+01
     -0.484  0.9481E-01  0.3418E+01
     -0.424  0.9856E-01  0.3424E+01
     -0.364  0.8971E-01  0.3429E+01
     -0.304  0.7906E-01  0.3434E+01
     -0.244  0.7716E-01  0.3439E+01
     -0.183  0.8527E-01  0.3444E+01
     -0.123  0.9659E-01  0.3450E+01
     -0.063  0.1051E+00  0.3456E+01
     -0.003  0.1123E+00  0.3463E+01
      0.057  0.1237E+00  0.3470E+01
      0.117  0.1398E+00  0.3479E+01
      0.178  0.1518E+00  0.3488E+01
      0.238  0.1503E+00  0.3497E+01
      0.298  0.1340E+00  0.3505E+01
      0.358  0.1103E+00  0.3511E+01
      0.418  0.8655E-01  0.3517E+01
      0.478  0.6572E-01  0.3521E+01
      0.539  0.4777E-01  0.3524E+01
      0.599  0.3310E-01  0.3526E+01
      0.659  0.2372E-01  0.3527E+01
      0.719  0.2315E-01  0.3528E+01
      0.779  0.3535E-01  0.3530E+01
      0.839  0.6133E-01  0.3534E+01
      0.900  0.9554E-01  0.3540E+01
      0.960  0.1269E+00  0.3548E+01
      1.020  0.1458E+00  0.3556E+01
      1.080  0.1505E+00  0.3565E+01
      1.140  0.1465E+00  0.3574E+01
      1.201  0.1396E+00  0.3583E+01
      1.261  0.1318E+00  0.3591E+01
      1.321  0.1228E+00  0.3598E+01
      1.381  0.1136E+00  0.3605E+01
      1.441  0.1067E+00  0.3611E+01
      1.501  0.1038E+00  0.3617E+01
      1.562  0.1027E+00  0.3624E+01
      1.622  0.9886E-01  0.3630E+01
      1.682  0.8980E-01  0.3635E+01
      1.742  0.7825E-01  0.3640E+01
      1.802  0.7009E-01  0.3644E+01
      1.862  0.6851E-01  0.3648E+01
      1.923  0.7101E-01  0.3652E+01
      1.983  0.7312E-01  0.3657E+01
      2.043  0.7431E-01  0.3661E+01
      2.103  0.7874E-01  0.3666E+01
      2.163  0.8993E-01  0.3671E+01
      2.223  0.1058E+00  0.3678E+01
      2.284  0.1194E+00  0.3685E+01
      2.344  0.1247E+00  0.3692E+01
      2.404  0.1197E+00  0.3700E+01
      2.464  0.1073E+00  0.3706E+01
      2.524  0.9193E-01  0.3712E+01
      2.585  0.7708E-01  0.3716E+01
      2.645  0.6583E-01  0.3720E+01
      2.705  0.6238E-01  0.3724E+01
      2.765  0.7067E-01  0.3728E+01
      2.825  0.8973E-01  0.3734E+01
      2.885  0.1115E+00  0.3740E+01
      2.946  0.1256E+00  0.3748E+01
      3.006  0.1274E+00  0.3755E+01
      3.066  0.1204E+00  0.3763E+01
      3.126  0.1117E+00  0.3769E+01
      3.186  0.1050E+00  0.3776E+01
      3.246  0.9957E-01  0.3782E+01
      3.307  0.9259E-01  0.3787E+01
      3.367  0.8309E-01  0.3792E+01
      3.427  0.7295E-01  0.3797E+01
      3.487  0.6556E-01  0.3801E+01
      3.547  0.6257E-01  0.3804E+01
      3.607  0.6141E-01  0.3808E+01
      3.668  0.5716E-01  0.3812E+01
      3.728  0.4841E-01  0.3814E+01
      3.788  0.4110E-01  0.3817E+01
      3.848  0.4401E-01  0.3820E+01
      3.908  0.5886E-01  0.3823E+01
      3.969  0.7581E-01  0.3828E+01
      4.029  0.8079E-01  0.3833E+01
      4.089  0.6775E-01  0.3837E+01
      4.149  0.4313E-01  0.3839E+01
      4.209  0.1903E-01  0.3840E+01
      4.269  0.3560E-02  0.3841E+01
      4.330 -0.2634E-02  0.3840E+01
      4.390 -0.3263E-02  0.3840E+01
      4.450 -0.2066E-02  0.3840E+01
      4.510 -0.9509E-03  0.3840E+01
      4.570 -0.3456E-03  0.3840E+01
      4.630 -0.1026E-03  0.3840E+01
      4.691 -0.2528E-04  0.3840E+01
      4.751 -0.5215E-05  0.3840E+01
      4.811 -0.9040E-06  0.3840E+01
      4.871 -0.1318E-06  0.3840E+01
      4.931 -0.1616E-07  0.3840E+01
      4.991 -0.1665E-08  0.3840E+01
      5.052 -0.1439E-09  0.3840E+01
      5.112 -0.1042E-10  0.3840E+01
      5.172 -0.6310E-12  0.3840E+01
      5.232 -0.3194E-13  0.3840E+01
      5.292 -0.1347E-14  0.3840E+01
      5.352 -0.4382E-16  0.3840E+01
      5.413 -0.2306E-17  0.3840E+01
      5.473  0.0000E+00  0.3840E+01
      5.533  0.0000E+00  0.3840E+01
      5.593  0.0000E+00  0.3840E+01
      5.653  0.0000E+00  0.3840E+01
      5.714  0.0000E+00  0.3840E+01
      5.774  0.0000E+00  0.3840E+01
      5.834  0.0000E+00  0.3840E+01
      5.894  0.0000E+00  0.3840E+01
      5.954  0.0000E+00  0.3840E+01
      6.014  0.0000E+00  0.3840E+01
      6.075  0.0000E+00  0.3840E+01
      6.135  0.0000E+00  0.3840E+01
      6.13474911    -11.91730250  301     -1.24462721      1.00000000
    -11.917  0.0000E+00  0.0000E+00  0.0000E+00
    -11.857  0.0000E+00  0.0000E+00  0.0000E+00
    -11.797  0.0000E+00  0.0000E+00  0.0000E+00
    -11.737  0.0000E+00  0.0000E+00  0.0000E+00
    -11.677  0.0000E+00  0.0000E+00  0.0000E+00
    -11.616  0.0000E+00  0.0000E+00  0.0000E+00
    -11.556 -0.1886E-30 -0.1641E-31 -0.5304E-32
    -11.496 -0.2280E-28 -0.1984E-29 -0.6412E-30
    -11.436 -0.2313E-26 -0.2013E-27 -0.6506E-28
    -11.376 -0.1954E-24 -0.1700E-25 -0.5496E-26
    -11.316 -0.1374E-22 -0.1196E-23 -0.3866E-24
    -11.255 -0.8046E-21 -0.7003E-22 -0.2264E-22
    -11.195 -0.3922E-19 -0.3414E-20 -0.1104E-20
    -11.135 -0.1591E-17 -0.1385E-18 -0.4479E-19
    -11.075 -0.5237E-16 -0.4560E-17 -0.1475E-17
    -11.015 -0.1458E-14 -0.1270E-15 -0.4107E-16
    -10.955 -0.3390E-13 -0.2954E-14 -0.9558E-15
    -10.894 -0.6548E-12 -0.5709E-13 -0.1848E-13
    -10.834 -0.1050E-10 -0.9163E-12 -0.2969E-12
    -10.774 -0.1398E-09 -0.1221E-10 -0.3960E-11
    -10.714 -0.1544E-08 -0.1351E-09 -0.4387E-10
    -10.654 -0.1414E-07 -0.1240E-08 -0.4035E-09
    -10.593 -0.1073E-06 -0.9449E-08 -0.3081E-08
    -10.533 -0.6753E-06 -0.5973E-07 -0.1954E-07
    -10.473 -0.3518E-05 -0.3133E-06 -0.1030E-06
    -10.413 -0.1516E-04 -0.1362E-05 -0.4502E-06
    -10.353 -0.5381E-04 -0.4894E-05 -0.1630E-05
    -10.293 -0.1562E-03 -0.1444E-04 -0.4854E-05
    -10.232 -0.3638E-03 -0.3433E-04 -0.1168E-04
    -10.172 -0.6459E-03 -0.6283E-04 -0.2176E-04
    -10.112 -0.7363E-03 -0.7635E-04 -0.2746E-04
    -10.052  0.1649E-04 -0.1359E-04 -0.8340E-05
     -9.992  0.2491E-02  0.2118E-03  0.6495E-04
     -9.932  0.7092E-02  0.6455E-03  0.2094E-03
     -9.871  0.1294E-01  0.1216E-02  0.4058E-03
     -9.811  0.1804E-01  0.1754E-02  0.6074E-03
     -9.751  0.2080E-01  0.2132E-02  0.7829E-03
     -9.691  0.2125E-01  0.2359E-02  0.9313E-03
     -9.631  0.2026E-01  0.2467E-02  0.1033E-02
     -9.571  0.1805E-01  0.2382E-02  0.1020E-02
     -9.510  0.1445E-01  0.2033E-02  0.8511E-03
     -9.450  0.1063E-01  0.1584E-02  0.6203E-03
     -9.390  0.9414E-02  0.1433E-02  0.5426E-03
     -9.330  0.1297E-01  0.1895E-02  0.7982E-03
     -9.270  0.2045E-01  0.2885E-02  0.1380E-02
     -9.209  0.2828E-01  0.3952E-02  0.2097E-02
     -9.149  0.3313E-01  0.4638E-02  0.2756E-02
     -9.089  0.3496E-01  0.4853E-02  0.3342E-02
     -9.029  0.3656E-01  0.4872E-02  0.3946E-02
     -8.969  0.4008E-01  0.4949E-02  0.4501E-02
     -8.909  0.4449E-01  0.5016E-02  0.4705E-02
     -8.848  0.4714E-01  0.4830E-02  0.4343E-02
     -8.788  0.4721E-01  0.4362E-02  0.3616E-02
     -8.728  0.4654E-01  0.3929E-02  0.3034E-02
     -8.668  0.4725E-01  0.3947E-02  0.3007E-02
     -8.608  0.4997E-01  0.4645E-02  0.3640E-02
     -8.548  0.5443E-01  0.5982E-02  0.4862E-02
     -8.487  0.6020E-01  0.7688E-02  0.6546E-02
     -8.427  0.6548E-01  0.9272E-02  0.8367E-02
     -8.367  0.6692E-01  0.1014E-01  0.9715E-02
     -8.307  0.6227E-01  0.9931E-02  0.1001E-01
     -8.247  0.5322E-01  0.8865E-02  0.9245E-02
     -8.187  0.4470E-01  0.7625E-02  0.8175E-02
     -8.126  0.4175E-01  0.6963E-02  0.8041E-02
     -8.066  0.4672E-01  0.7332E-02  0.1005E-01
     -8.006  0.5834E-01  0.8691E-02  0.1494E-01
     -7.946  0.7272E-01  0.1049E-01  0.2274E-01
     -7.886  0.8587E-01  0.1193E-01  0.3275E-01
     -7.826  0.9594E-01  0.1248E-01  0.4388E-01
     -7.765  0.1029E+00  0.1233E-01  0.5500E-01
     -7.705  0.1065E+00  0.1222E-01  0.6537E-01
     -7.645  0.1067E+00  0.1293E-01  0.7528E-01
     -7.585  0.1064E+00  0.1482E-01  0.8644E-01
     -7.525  0.1140E+00  0.1778E-01  0.1007E+00
     -7.464  0.1382E+00  0.2133E-01  0.1179E+00
     -7.404  0.1795E+00  0.2471E-01  0.1369E+00
     -7.344  0.2266E+00  0.2717E-01  0.1589E+00
     -7.284  0.2611E+00  0.2842E-01  0.1878E+00
     -7.224  0.2689E+00  0.2881E-01  0.2241E+00
     -7.164  0.2488E+00  0.2913E-01  0.2591E+00
     -7.103  0.2123E+00  0.3013E-01  0.2821E+00
     -7.043  0.1760E+00  0.3214E-01  0.2940E+00
     -6.983  0.1524E+00  0.3493E-01  0.3137E+00
     -6.923  0.1465E+00  0.3806E-01  0.3651E+00
     -6.863  0.1569E+00  0.4135E-01  0.4557E+00
     -6.803  0.1778E+00  0.4492E-01  0.5683E+00
     -6.742  0.1999E+00  0.4869E-01  0.6725E+00
     -6.682  0.2129E+00  0.5204E-01  0.7472E+00
     -6.622  0.2102E+00  0.5422E-01  0.7939E+00
     -6.562  0.1929E+00  0.5517E-01  0.8297E+00
     -6.502  0.1683E+00  0.5568E-01  0.8682E+00
     -6.442  0.1446E+00  0.5660E-01  0.9102E+00
     -6.381  0.1257E+00  0.5777E-01  0.9498E+00
     -6.321  0.1117E+00  0.5802E-01  0.9844E+00
     -6.261  0.1004E+00  0.5625E-01  0.1012E+01
     -6.201  0.8960E-01  0.5270E-01  0.1023E+01
     -6.141  0.7834E-01  0.4907E-01  0.1002E+01
     -6.080  0.6716E-01  0.4707E-01  0.9460E+00
     -6.020  0.5734E-01  0.4677E-01  0.8726E+00
     -5.960  0.4977E-01  0.4650E-01  0.8104E+00
     -5.900  0.4464E-01  0.4468E-01  0.7838E+00
     -5.840  0.4177E-01  0.4158E-01  0.8043E+00
     -5.780  0.4076E-01  0.3916E-01  0.8674E+00
     -5.719  0.4076E-01  0.3907E-01  0.9519E+00
     -5.659  0.4042E-01  0.4121E-01  0.1027E+01
     -5.599  0.3867E-01  0.4401E-01  0.1068E+01
     -5.539  0.3543E-01  0.4580E-01  0.1071E+01
     -5.479  0.3158E-01  0.4564E-01  0.1043E+01
     -5.419  0.2819E-01  0.4358E-01  0.9942E+00
     -5.358  0.2610E-01  0.4046E-01  0.9358E+00
     -5.298  0.2573E-01  0.3744E-01  0.8860E+00
     -5.238  0.2676E-01  0.3518E-01  0.8612E+00
     -5.178  0.2793E-01  0.3341E-01  0.8610E+00
     -5.118  0.2781E-01  0.3129E-01  0.8706E+00
     -5.058  0.2619E-01  0.2849E-01  0.8814E+00
     -4.997  0.2446E-01  0.2567E-01  0.9028E+00
     -4.937  0.2423E-01  0.2391E-01  0.9490E+00
     -4.877  0.2575E-01  0.2385E-01  0.1018E+01
     -4.817  0.2785E-01  0.2544E-01  0.1094E+01
     -4.757  0.2961E-01  0.2854E-01  0.1165E+01
     -4.696  0.3159E-01  0.3344E-01  0.1235E+01
     -4.636  0.3517E-01  0.4031E-01  0.1320E+01
     -4.576  0.4048E-01  0.4823E-01  0.1419E+01
     -4.516  0.4541E-01  0.5485E-01  0.1511E+01
     -4.456  0.4715E-01  0.5771E-01  0.1564E+01
     -4.396  0.4490E-01  0.5617E-01  0.1572E+01
     -4.335  0.4095E-01  0.5219E-01  0.1565E+01
     -4.275  0.3879E-01  0.4905E-01  0.1600E+01
     -4.215  0.4055E-01  0.4936E-01  0.1714E+01
     -4.155  0.4608E-01  0.5387E-01  0.1892E+01
     -4.095  0.5370E-01  0.6146E-01  0.2074E+01
     -4.035  0.6123E-01  0.7009E-01  0.2194E+01
     -3.974  0.6649E-01  0.7786E-01  0.2221E+01
     -3.914  0.6799E-01  0.8352E-01  0.2168E+01
     -3.854  0.6593E-01  0.8648E-01  0.2063E+01
     -3.794  0.6213E-01  0.8672E-01  0.1926E+01
     -3.734  0.5861E-01  0.8502E-01  0.1768E+01
     -3.674  0.5592E-01  0.8256E-01  0.1614E+01
     -3.613  0.5297E-01  0.7994E-01  0.1487E+01
     -3.553  0.4836E-01  0.7660E-01  0.1386E+01
     -3.493  0.4206E-01  0.7187E-01  0.1288E+01
     -3.433  0.3588E-01  0.6684E-01  0.1178E+01
     -3.373  0.3236E-01  0.6466E-01  0.1084E+01
     -3.312  0.3295E-01  0.6809E-01  0.1053E+01
     -3.252  0.3700E-01  0.7662E-01  0.1113E+01
     -3.192  0.4233E-01  0.8627E-01  0.1253E+01
     -3.132  0.4651E-01  0.9243E-01  0.1425E+01
     -3.072  0.4801E-01  0.9273E-01  0.1568E+01
     -3.012  0.4649E-01  0.8758E-01  0.1625E+01
     -2.951  0.4255E-01  0.7870E-01  0.1576E+01
     -2.891  0.3729E-01  0.6795E-01  0.1453E+01
     -2.831  0.3172E-01  0.5710E-01  0.1323E+01
     -2.771  0.2663E-01  0.4789E-01  0.1240E+01
     -2.711  0.2270E-01  0.4177E-01  0.1210E+01
     -2.651  0.2051E-01  0.3997E-01  0.1206E+01
     -2.590  0.2031E-01  0.4351E-01  0.1210E+01
     -2.530  0.2195E-01  0.5174E-01  0.1237E+01
     -2.470  0.2490E-01  0.6081E-01  0.1309E+01
     -2.410  0.2846E-01  0.6527E-01  0.1432E+01
     -2.350  0.3214E-01  0.6256E-01  0.1591E+01
     -2.290  0.3601E-01  0.5572E-01  0.1767E+01
     -2.229  0.4052E-01  0.5095E-01  0.1924E+01
     -2.169  0.4586E-01  0.5263E-01  0.2011E+01
     -2.109  0.5112E-01  0.5985E-01  0.1982E+01
     -2.049  0.5410E-01  0.6680E-01  0.1832E+01
     -1.989  0.5242E-01  0.6694E-01  0.1604E+01
     -1.929  0.4581E-01  0.5861E-01  0.1378E+01
     -1.868  0.3711E-01  0.4691E-01  0.1236E+01
     -1.808  0.3061E-01  0.3954E-01  0.1236E+01
     -1.748  0.2863E-01  0.4019E-01  0.1384E+01
     -1.688  0.3006E-01  0.4615E-01  0.1618E+01
     -1.628  0.3170E-01  0.5144E-01  0.1832E+01
     -1.567  0.3123E-01  0.5206E-01  0.1937E+01
     -1.507  0.2900E-01  0.4834E-01  0.1930E+01
     -1.447  0.2750E-01  0.4359E-01  0.1893E+01
     -1.387  0.2895E-01  0.4075E-01  0.1906E+01
     -1.327  0.3305E-01  0.4015E-01  0.1963E+01
     -1.267  0.3693E-01  0.3997E-01  0.1982E+01
     -1.206  0.3793E-01  0.3850E-01  0.1903E+01
     -1.146  0.3653E-01  0.3585E-01  0.1747E+01
     -1.086  0.3598E-01  0.3353E-01  0.1578E+01
     -1.026  0.3852E-01  0.3249E-01  0.1418E+01
     -0.966  0.4220E-01  0.3216E-01  0.1238E+01
     -0.906  0.4235E-01  0.3123E-01  0.1004E+01
     -0.845  0.3610E-01  0.2899E-01  0.7265E+00
     -0.785  0.2557E-01  0.2601E-01  0.4584E+00
     -0.725  0.1685E-01  0.2370E-01  0.2543E+00
     -0.665  0.1599E-01  0.2375E-01  0.1427E+00
     -0.605  0.2466E-01  0.2716E-01  0.1179E+00
     -0.545  0.3819E-01  0.3297E-01  0.1451E+00
     -0.484  0.4824E-01  0.3798E-01  0.1778E+00
     -0.424  0.4894E-01  0.3889E-01  0.1846E+00
     -0.364  0.4124E-01  0.3549E-01  0.1667E+00
     -0.304  0.3143E-01  0.3115E-01  0.1488E+00
     -0.244  0.2568E-01  0.2985E-01  0.1518E+00
     -0.183  0.2620E-01  0.3271E-01  0.1744E+00
     -0.123  0.3175E-01  0.3797E-01  0.1989E+00
     -0.063  0.4069E-01  0.4432E-01  0.2115E+00
     -0.003  0.5246E-01  0.5356E-01  0.2153E+00
      0.057  0.6587E-01  0.6818E-01  0.2232E+00
      0.117  0.7672E-01  0.8597E-01  0.2385E+00
      0.178  0.7924E-01  0.9887E-01  0.2490E+00
      0.238  0.7078E-01  0.9962E-01  0.2396E+00
      0.298  0.5440E-01  0.8874E-01  0.2089E+00
      0.358  0.3630E-01  0.7327E-01  0.1683E+00
      0.418  0.2138E-01  0.5935E-01  0.1296E+00
      0.478  0.1130E-01  0.4797E-01  0.9771E-01
      0.539  0.5457E-02  0.3724E-01  0.7266E-01
      0.599  0.2536E-02  0.2644E-01  0.5388E-01
      0.659  0.1626E-02  0.1720E-01  0.4214E-01
      0.719  0.2946E-02  0.1257E-01  0.4144E-01
      0.779  0.7885E-02  0.1578E-01  0.5856E-01
      0.839  0.1778E-01  0.2885E-01  0.9640E-01
      0.900  0.3221E-01  0.5074E-01  0.1458E+00
      0.960  0.4854E-01  0.7658E-01  0.1871E+00
      1.020  0.6312E-01  0.9964E-01  0.2029E+00
      1.080  0.7289E-01  0.1149E+00  0.1927E+00
      1.140  0.7599E-01  0.1208E+00  0.1710E+00
      1.201  0.7233E-01  0.1191E+00  0.1544E+00
      1.261  0.6401E-01  0.1123E+00  0.1494E+00
      1.321  0.5464E-01  0.1029E+00  0.1528E+00
      1.381  0.4722E-01  0.9303E-01  0.1585E+00
      1.441  0.4239E-01  0.8458E-01  0.1628E+00
      1.501  0.3876E-01  0.7866E-01  0.1634E+00
      1.562  0.3461E-01  0.7445E-01  0.1571E+00
      1.622  0.2921E-01  0.6998E-01  0.1414E+00
      1.682  0.2326E-01  0.6502E-01  0.1182E+00
      1.742  0.1827E-01  0.6295E-01  0.9408E-01
      1.802  0.1559E-01  0.6749E-01  0.7632E-01
      1.862  0.1546E-01  0.7687E-01  0.6788E-01
      1.923  0.1707E-01  0.8369E-01  0.6600E-01
      1.983  0.1972E-01  0.8199E-01  0.6624E-01
      2.043  0.2379E-01  0.7351E-01  0.6789E-01
      2.103  0.2996E-01  0.6563E-01  0.7432E-01
      2.163  0.3712E-01  0.6452E-01  0.8781E-01
      2.223  0.4220E-01  0.7106E-01  0.1051E+00
      2.284  0.4278E-01  0.8166E-01  0.1189E+00
      2.344  0.3980E-01  0.9091E-01  0.1237E+00
      2.404  0.3697E-01  0.9429E-01  0.1186E+00
      2.464  0.3739E-01  0.9058E-01  0.1065E+00
      2.524  0.4065E-01  0.8191E-01  0.9155E-01
      2.585  0.4335E-01  0.7152E-01  0.7733E-01
      2.645  0.4263E-01  0.6272E-01  0.6766E-01
      2.705  0.3899E-01  0.6012E-01  0.6740E-01
      2.765  0.3539E-01  0.6870E-01  0.7989E-01
      2.825  0.3368E-01  0.8859E-01  0.1022E+00
      2.885  0.3275E-01  0.1115E+00  0.1245E+00
      2.946  0.3048E-01  0.1255E+00  0.1359E+00
      3.006  0.2670E-01  0.1244E+00  0.1315E+00
      3.066  0.2378E-01  0.1125E+00  0.1155E+00
      3.126  0.2424E-01  0.9882E-01  0.9627E-01
      3.186  0.2834E-01  0.8882E-01  0.8108E-01
      3.246  0.3377E-01  0.8118E-01  0.7239E-01
      3.307  0.3743E-01  0.7194E-01  0.6784E-01
      3.367  0.3749E-01  0.5976E-01  0.6343E-01
      3.427  0.3410E-01  0.4814E-01  0.5770E-01
      3.487  0.2870E-01  0.4286E-01  0.5291E-01
      3.547  0.2282E-01  0.4668E-01  0.5141E-01
      3.607  0.1728E-01  0.5562E-01  0.5154E-01
      3.668  0.1233E-01  0.6101E-01  0.4863E-01
      3.728  0.8143E-02  0.5704E-01  0.4052E-01
      3.788  0.5387E-02  0.4655E-01  0.3115E-01
      3.848  0.4804E-02  0.3818E-01  0.2710E-01
      3.908  0.6248E-02  0.3712E-01  0.3047E-01
      3.969  0.8261E-02  0.4000E-01  0.3605E-01
      4.029  0.8989E-02  0.3929E-01  0.3633E-01
      4.089  0.7640E-02  0.3133E-01  0.2860E-01
      4.149  0.4941E-02  0.1901E-01  0.1661E-01
      4.209  0.2271E-02  0.7828E-02  0.6128E-02
      4.269  0.5304E-03  0.1085E-02  0.2275E-03
      4.330 -0.2082E-03 -0.1397E-02 -0.1614E-02
      4.390 -0.3316E-03 -0.1513E-02 -0.1425E-02
      4.450 -0.2312E-03 -0.9291E-03 -0.7858E-03
      4.510 -0.1165E-03 -0.4265E-03 -0.3285E-03
      4.570 -0.4664E-04 -0.1574E-03 -0.1108E-03
      4.630 -0.1533E-04 -0.4811E-04 -0.3101E-04
      4.691 -0.4182E-05 -0.1232E-04 -0.7321E-05
      4.751 -0.9493E-06 -0.2651E-05 -0.1467E-05
      4.811 -0.1794E-06 -0.4801E-06 -0.2501E-06
      4.871 -0.2820E-07 -0.7300E-07 -0.3622E-07
      4.931 -0.3684E-08 -0.9297E-08 -0.4442E-08
      4.991 -0.3999E-09 -0.9899E-09 -0.4596E-09
      5.052 -0.3605E-10 -0.8797E-10 -0.3998E-10
      5.112 -0.2699E-11 -0.6517E-11 -0.2916E-11
      5.172 -0.1679E-12 -0.4022E-12 -0.1779E-12
      5.232 -0.8676E-14 -0.2067E-13 -0.9068E-14
      5.292 -0.3720E-15 -0.8827E-15 -0.3837E-15
      5.352 -0.1279E-16 -0.3000E-16 -0.1287E-16
      5.413 -0.6732E-18 -0.1579E-17 -0.6773E-18
      5.473  0.0000E+00  0.0000E+00  0.0000E+00
      5.533  0.0000E+00  0.0000E+00  0.0000E+00
      5.593  0.0000E+00  0.0000E+00  0.0000E+00
      5.653  0.0000E+00  0.0000E+00  0.0000E+00
      5.714  0.0000E+00  0.0000E+00  0.0000E+00
      5.774  0.0000E+00  0.0000E+00  0.0000E+00
      5.834  0.0000E+00  0.0000E+00  0.0000E+00
      5.894  0.0000E+00  0.0000E+00  0.0000E+00
      5.954  0.0000E+00  0.0000E+00  0.0000E+00
      6.014  0.0000E+00  0.0000E+00  0.0000E+00
      6.075  0.0000E+00  0.0000E+00  0.0000E+00
      6.135  0.0000E+00  0.0000E+00  0.0000E+00
      6.13474911    -11.91730250  301     -1.24462721      1.00000000
    -11.917  0.0000E+00  0.0000E+00  0.0000E+00
    -11.857  0.0000E+00  0.0000E+00  0.0000E+00
    -11.797  0.0000E+00  0.0000E+00  0.0000E+00
    -11.737  0.0000E+00  0.0000E+00  0.0000E+00
    -11.677  0.0000E+00  0.0000E+00  0.0000E+00
    -11.616  0.0000E+00  0.0000E+00  0.0000E+00
    -11.556 -0.1896E-30 -0.1909E-31 -0.5423E-32
    -11.496 -0.2292E-28 -0.2308E-29 -0.6556E-30
    -11.436 -0.2325E-26 -0.2342E-27 -0.6653E-28
    -11.376 -0.1964E-24 -0.1978E-25 -0.5620E-26
    -11.316 -0.1382E-22 -0.1392E-23 -0.3953E-24
    -11.255 -0.8090E-21 -0.8149E-22 -0.2315E-22
    -11.195 -0.3944E-19 -0.3973E-20 -0.1129E-20
    -11.135 -0.1600E-17 -0.1612E-18 -0.4581E-19
    -11.075 -0.5267E-16 -0.5308E-17 -0.1509E-17
    -11.015 -0.1466E-14 -0.1478E-15 -0.4203E-16
    -10.955 -0.3410E-13 -0.3439E-14 -0.9784E-15
    -10.894 -0.6589E-12 -0.6648E-13 -0.1893E-13
    -10.834 -0.1057E-10 -0.1067E-11 -0.3042E-12
    -10.774 -0.1408E-09 -0.1423E-10 -0.4062E-11
    -10.714 -0.1556E-08 -0.1576E-09 -0.4505E-10
    -10.654 -0.1427E-07 -0.1448E-08 -0.4152E-09
    -10.593 -0.1085E-06 -0.1105E-07 -0.3179E-08
    -10.533 -0.6838E-06 -0.6995E-07 -0.2024E-07
    -10.473 -0.3572E-05 -0.3678E-06 -0.1071E-06
    -10.413 -0.1545E-04 -0.1604E-05 -0.4714E-06
    -10.353 -0.5514E-04 -0.5792E-05 -0.1721E-05
    -10.293 -0.1612E-03 -0.1719E-04 -0.5180E-05
    -10.232 -0.3791E-03 -0.4120E-04 -0.1264E-04
    -10.172 -0.6838E-03 -0.7638E-04 -0.2403E-04
    -10.112 -0.8105E-03 -0.9570E-04 -0.3167E-04
    -10.052 -0.9622E-04 -0.2743E-04 -0.1411E-04
     -9.992  0.2366E-02  0.2304E-03  0.6010E-04
     -9.932  0.7027E-02  0.7351E-03  0.2107E-03
     -9.871  0.1312E-01  0.1417E-02  0.4232E-03
     -9.811  0.1895E-01  0.2115E-02  0.6635E-03
     -9.751  0.2341E-01  0.2739E-02  0.9215E-03
     -9.691  0.2675E-01  0.3324E-02  0.1208E-02
     -9.631  0.2914E-01  0.3831E-02  0.1472E-02
     -9.571  0.2916E-01  0.3987E-02  0.1566E-02
     -9.510  0.2503E-01  0.3523E-02  0.1372E-02
     -9.450  0.1744E-01  0.2569E-02  0.9689E-03
     -9.390  0.9884E-02  0.1652E-02  0.6222E-03
     -9.330  0.5624E-02  0.1256E-02  0.5891E-03
     -9.270  0.5125E-02  0.1436E-02  0.9268E-03
     -9.209  0.6426E-02  0.1864E-02  0.1491E-02
     -9.149  0.7753E-02  0.2198E-02  0.2114E-02
     -9.089  0.9528E-02  0.2400E-02  0.2772E-02
     -9.029  0.1373E-01  0.2690E-02  0.3498E-02
     -8.969  0.2116E-01  0.3198E-02  0.4129E-02
     -8.909  0.2963E-01  0.3726E-02  0.4293E-02
     -8.848  0.3555E-01  0.3931E-02  0.3795E-02
     -8.788  0.3731E-01  0.3728E-02  0.2952E-02
     -8.728  0.3659E-01  0.3445E-02  0.2403E-02
     -8.668  0.3651E-01  0.3555E-02  0.2603E-02
     -8.608  0.3926E-01  0.4321E-02  0.3543E-02
     -8.548  0.4549E-01  0.5661E-02  0.4922E-02
     -8.487  0.5421E-01  0.7226E-02  0.6390E-02
     -8.427  0.6218E-01  0.8507E-02  0.7619E-02
     -8.367  0.6475E-01  0.9004E-02  0.8282E-02
     -8.307  0.5950E-01  0.8525E-02  0.8179E-02
     -8.247  0.4916E-01  0.7405E-02  0.7472E-02
     -8.187  0.4006E-01  0.6342E-02  0.6840E-02
     -8.126  0.3706E-01  0.5931E-02  0.7415E-02
     -8.066  0.4041E-01  0.6352E-02  0.1034E-01
     -8.006  0.4788E-01  0.7445E-02  0.1592E-01
     -7.946  0.5895E-01  0.8985E-02  0.2311E-01
     -7.886  0.7492E-01  0.1075E-01  0.3026E-01
     -7.826  0.9460E-01  0.1240E-01  0.3668E-01
     -7.765  0.1128E+00  0.1361E-01  0.4336E-01
     -7.705  0.1255E+00  0.1439E-01  0.5198E-01
     -7.645  0.1349E+00  0.1537E-01  0.6405E-01
     -7.585  0.1467E+00  0.1730E-01  0.8092E-01
     -7.525  0.1616E+00  0.2036E-01  0.1031E+00
     -7.464  0.1731E+00  0.2383E-01  0.1285E+00
     -7.404  0.1737E+00  0.2659E-01  0.1520E+00
     -7.344  0.1646E+00  0.2807E-01  0.1705E+00
     -7.284  0.1559E+00  0.2847E-01  0.1853E+00
     -7.224  0.1568E+00  0.2819E-01  0.1996E+00
     -7.164  0.1662E+00  0.2733E-01  0.2130E+00
     -7.103  0.1739E+00  0.2591E-01  0.2217E+00
     -7.043  0.1712E+00  0.2448E-01  0.2265E+00
     -6.983  0.1583E+00  0.2408E-01  0.2378E+00
     -6.923  0.1446E+00  0.2575E-01  0.2707E+00
     -6.863  0.1413E+00  0.2982E-01  0.3329E+00
     -6.803  0.1545E+00  0.3569E-01  0.4158E+00
     -6.742  0.1826E+00  0.4188E-01  0.4977E+00
     -6.682  0.2169E+00  0.4660E-01  0.5582E+00
     -6.622  0.2452E+00  0.4869E-01  0.5931E+00
     -6.562  0.2564E+00  0.4828E-01  0.6194E+00