  64  64   1   0
  0.4545750E+02  0.1117838E-08  0.1119496E-08  0.2684247E-08  0.1000000E-15
  1.000000000000000E-004
  CAR 
 unknown system                          
      5.89304964    -12.29601982  301     -0.86670269      1.00000000
    -12.296  0.0000E+00  0.0000E+00
    -12.235  0.0000E+00  0.0000E+00
    -12.175  0.0000E+00  0.0000E+00
    -12.114  0.0000E+00  0.0000E+00
    -12.053  0.0000E+00  0.0000E+00
    -11.993  0.0000E+00  0.0000E+00
    -11.932 -0.2037E-30 -0.1235E-31
    -11.872 -0.2531E-28 -0.1547E-29
    -11.811 -0.2631E-26 -0.1611E-27
    -11.750 -0.2271E-24 -0.1393E-25
    -11.690 -0.1628E-22 -0.1001E-23
    -11.629 -0.9684E-21 -0.5971E-22
    -11.568 -0.4782E-19 -0.2959E-20
    -11.508 -0.1959E-17 -0.1217E-18
    -11.447 -0.6430E-16 -0.4020E-17
    -11.387 -0.1815E-14 -0.1140E-15
    -11.326 -0.4219E-13 -0.2672E-14
    -11.265 -0.8125E-12 -0.5194E-13
    -11.205 -0.1294E-10 -0.8367E-12
    -11.144 -0.1705E-09 -0.1117E-10
    -11.083 -0.1854E-08 -0.1236E-09
    -11.023 -0.1665E-07 -0.1133E-08
    -10.962 -0.1233E-06 -0.8611E-08
    -10.902 -0.7528E-06 -0.5425E-07
    -10.841 -0.3784E-05 -0.2837E-06
    -10.780 -0.1564E-04 -0.1232E-05
    -10.720 -0.5307E-04 -0.4450E-05
    -10.659 -0.1467E-03 -0.1335E-04
    -10.598 -0.3246E-03 -0.3303E-04
    -10.538 -0.5434E-03 -0.6598E-04
    -10.477 -0.5531E-03 -0.9951E-04
    -10.416  0.2241E-03 -0.8593E-04
    -10.356  0.2551E-02  0.6877E-04
    -10.295  0.6716E-02  0.4760E-03
    -10.235  0.1168E-01  0.1184E-02
    -10.174  0.1526E-01  0.2110E-02
    -10.113  0.1598E-01  0.3079E-02
    -10.053  0.1504E-01  0.3991E-02
     -9.992  0.1544E-01  0.4927E-02
     -9.931  0.1871E-01  0.6061E-02
     -9.871  0.2288E-01  0.7448E-02
     -9.810  0.2428E-01  0.8921E-02
     -9.750  0.2098E-01  0.1019E-01
     -9.689  0.1450E-01  0.1107E-01
     -9.628  0.8955E-02  0.1162E-01
     -9.568  0.8414E-02  0.1213E-01
     -9.507  0.1401E-01  0.1297E-01
     -9.446  0.2268E-01  0.1435E-01
     -9.386  0.2930E-01  0.1613E-01
     -9.325  0.3083E-01  0.1800E-01
     -9.265  0.2823E-01  0.1971E-01
     -9.204  0.2445E-01  0.2119E-01
     -9.143  0.2148E-01  0.2249E-01
     -9.083  0.1998E-01  0.2370E-01
     -9.022  0.2065E-01  0.2495E-01
     -8.961  0.2505E-01  0.2647E-01
     -8.901  0.3451E-01  0.2857E-01
     -8.840  0.4780E-01  0.3146E-01
     -8.779  0.5982E-01  0.3509E-01
     -8.719  0.6418E-01  0.3898E-01
     -8.658  0.5820E-01  0.4251E-01
     -8.598  0.4521E-01  0.4525E-01
     -8.537  0.3175E-01  0.4718E-01
     -8.476  0.2355E-01  0.4860E-01
     -8.416  0.2396E-01  0.5006E-01
     -8.355  0.3404E-01  0.5212E-01
     -8.294  0.5225E-01  0.5529E-01
     -8.234  0.7335E-01  0.5974E-01
     -8.173  0.8905E-01  0.6513E-01
     -8.113  0.9212E-01  0.7072E-01
     -8.052  0.8257E-01  0.7573E-01
     -7.991  0.7078E-01  0.8002E-01
     -7.931  0.7287E-01  0.8444E-01
     -7.870  0.1001E+00  0.9051E-01
     -7.809  0.1503E+00  0.9962E-01
     -7.749  0.2084E+00  0.1123E+00
     -7.688  0.2565E+00  0.1278E+00
     -7.627  0.2851E+00  0.1451E+00
     -7.567  0.2966E+00  0.1631E+00
     -7.506  0.3005E+00  0.1813E+00
     -7.446  0.3048E+00  0.1998E+00
     -7.385  0.3120E+00  0.2187E+00
     -7.324  0.3217E+00  0.2382E+00
     -7.264  0.3354E+00  0.2585E+00
     -7.203  0.3558E+00  0.2801E+00
     -7.142  0.3822E+00  0.3033E+00
     -7.082  0.4092E+00  0.3281E+00
     -7.021  0.4300E+00  0.3542E+00
     -6.961  0.4398E+00  0.3808E+00
     -6.900  0.4372E+00  0.4073E+00
     -6.839  0.4251E+00  0.4331E+00
     -6.779  0.4114E+00  0.4580E+00
     -6.718  0.4056E+00  0.4826E+00
     -6.657  0.4122E+00  0.5076E+00
     -6.597  0.4272E+00  0.5335E+00
     -6.536  0.4401E+00  0.5602E+00
     -6.476  0.4420E+00  0.5870E+00
     -6.415  0.4322E+00  0.6132E+00
     -6.354  0.4183E+00  0.6386E+00
     -6.294  0.4092E+00  0.6634E+00
     -6.233  0.4088E+00  0.6882E+00
     -6.172  0.4149E+00  0.7133E+00
     -6.112  0.4225E+00  0.7389E+00
     -6.051  0.4288E+00  0.7649E+00
     -5.990  0.4337E+00  0.7912E+00
     -5.930  0.4374E+00  0.8178E+00
     -5.869  0.4382E+00  0.8443E+00
     -5.809  0.4350E+00  0.8707E+00
     -5.748  0.4303E+00  0.8968E+00
     -5.687  0.4290E+00  0.9228E+00
     -5.627  0.4355E+00  0.9492E+00
     -5.566  0.4498E+00  0.9765E+00
     -5.505  0.4679E+00  0.1005E+01
     -5.445  0.4849E+00  0.1034E+01
     -5.384  0.4989E+00  0.1064E+01
     -5.324  0.5120E+00  0.1096E+01
     -5.263  0.5278E+00  0.1128E+01
     -5.202  0.5474E+00  0.1161E+01
     -5.142  0.5673E+00  0.1195E+01
     -5.081  0.5824E+00  0.1230E+01
     -5.020  0.5889E+00  0.1266E+01
     -4.960  0.5863E+00  0.1302E+01
     -4.899  0.5780E+00  0.1337E+01
     -4.839  0.5706E+00  0.1371E+01
     -4.778  0.5701E+00  0.1406E+01
     -4.717  0.5782E+00  0.1441E+01
     -4.657  0.5899E+00  0.1477E+01
     -4.596  0.5968E+00  0.1513E+01
     -4.535  0.5935E+00  0.1549E+01
     -4.475  0.5812E+00  0.1584E+01
     -4.414  0.5659E+00  0.1618E+01
     -4.353  0.5535E+00  0.1652E+01
     -4.293  0.5453E+00  0.1685E+01
     -4.232  0.5381E+00  0.1718E+01
     -4.172  0.5283E+00  0.1750E+01
     -4.111  0.5161E+00  0.1781E+01
     -4.050  0.5061E+00  0.1812E+01
     -3.990  0.5028E+00  0.1842E+01
     -3.929  0.5059E+00  0.1873E+01
     -3.868  0.5110E+00  0.1904E+01
     -3.808  0.5142E+00  0.1935E+01
     -3.747  0.5153E+00  0.1966E+01
     -3.687  0.5163E+00  0.1998E+01
     -3.626  0.5175E+00  0.2029E+01
     -3.565  0.5170E+00  0.2060E+01
     -3.505  0.5130E+00  0.2091E+01
     -3.444  0.5051E+00  0.2122E+01
     -3.383  0.4945E+00  0.2152E+01
     -3.323  0.4830E+00  0.2181E+01
     -3.262  0.4738E+00  0.2210E+01
     -3.201  0.4692E+00  0.2238E+01
     -3.141  0.4679E+00  0.2267E+01
     -3.080  0.4657E+00  0.2295E+01
     -3.020  0.4596E+00  0.2323E+01
     -2.959  0.4498E+00  0.2350E+01
     -2.898  0.4387E+00  0.2377E+01
     -2.838  0.4288E+00  0.2403E+01
     -2.777  0.4208E+00  0.2428E+01
     -2.716  0.4147E+00  0.2453E+01
     -2.656  0.4097E+00  0.2478E+01
     -2.595  0.4053E+00  0.2503E+01
     -2.535  0.4019E+00  0.2527E+01
     -2.474  0.3992E+00  0.2551E+01
     -2.413  0.3960E+00  0.2575E+01
     -2.353  0.3903E+00  0.2599E+01
     -2.292  0.3825E+00  0.2622E+01
     -2.231  0.3761E+00  0.2645E+01
     -2.171  0.3747E+00  0.2668E+01
     -2.110  0.3791E+00  0.2691E+01
     -2.050  0.3855E+00  0.2714E+01
     -1.989  0.3893E+00  0.2738E+01
     -1.928  0.3881E+00  0.2761E+01
     -1.868  0.3846E+00  0.2785E+01
     -1.807  0.3838E+00  0.2808E+01
     -1.746  0.3886E+00  0.2831E+01
     -1.686  0.3977E+00  0.2856E+01
     -1.625  0.4072E+00  0.2880E+01
     -1.564  0.4140E+00  0.2905E+01
     -1.504  0.4178E+00  0.2931E+01
     -1.443  0.4206E+00  0.2956E+01
     -1.383  0.4243E+00  0.2982E+01
     -1.322  0.4281E+00  0.3008E+01
     -1.261  0.4300E+00  0.3034E+01
     -1.201  0.4289E+00  0.3060E+01
     -1.140  0.4260E+00  0.3086E+01
     -1.079  0.4235E+00  0.3111E+01
     -1.019  0.4217E+00  0.3137E+01
     -0.958  0.4189E+00  0.3162E+01
     -0.898  0.4133E+00  0.3187E+01
     -0.837  0.4048E+00  0.3212E+01
     -0.776  0.3949E+00  0.3236E+01
     -0.716  0.3848E+00  0.3259E+01
     -0.655  0.3746E+00  0.3282E+01
     -0.594  0.3636E+00  0.3304E+01
     -0.534  0.3507E+00  0.3325E+01
     -0.473  0.3344E+00  0.3346E+01
     -0.412  0.3132E+00  0.3365E+01
     -0.352  0.2864E+00  0.3382E+01
     -0.291  0.2550E+00  0.3397E+01
     -0.231  0.2207E+00  0.3411E+01
     -0.170  0.1858E+00  0.3422E+01
     -0.109  0.1544E+00  0.3431E+01
     -0.049  0.1326E+00  0.3439E+01
      0.012  0.1262E+00  0.3447E+01
      0.073  0.1363E+00  0.3455E+01
      0.133  0.1573E+00  0.3465E+01
      0.194  0.1797E+00  0.3476E+01
      0.254  0.1931E+00  0.3487E+01
      0.315  0.1903E+00  0.3499E+01
      0.376  0.1692E+00  0.3509E+01
      0.436  0.1340E+00  0.3517E+01
      0.497  0.9420E-01  0.3523E+01
      0.558  0.6073E-01  0.3527E+01
      0.618  0.4298E-01  0.3529E+01
      0.679  0.4532E-01  0.3532E+01
      0.739  0.6497E-01  0.3536E+01
      0.800  0.9293E-01  0.3542E+01
      0.861  0.1189E+00  0.3549E+01
      0.921  0.1367E+00  0.3557E+01
      0.982  0.1458E+00  0.3566E+01
      1.043  0.1487E+00  0.3575E+01
      1.103  0.1480E+00  0.3584E+01
      1.164  0.1450E+00  0.3593E+01
      1.225  0.1405E+00  0.3601E+01
      1.285  0.1353E+00  0.3610E+01
      1.346  0.1288E+00  0.3617E+01
      1.406  0.1192E+00  0.3625E+01
      1.467  0.1055E+00  0.3631E+01
      1.528  0.8969E-01  0.3636E+01
      1.588  0.7635E-01  0.3641E+01
      1.649  0.6932E-01  0.3645E+01
      1.710  0.6979E-01  0.3649E+01
      1.770  0.7665E-01  0.3654E+01
      1.831  0.8805E-01  0.3659E+01
      1.891  0.1018E+00  0.3666E+01
      1.952  0.1145E+00  0.3673E+01
      2.013  0.1210E+00  0.3680E+01
      2.073  0.1186E+00  0.3687E+01
      2.134  0.1095E+00  0.3694E+01
      2.195  0.9937E-01  0.3700E+01
      2.255  0.9162E-01  0.3705E+01
      2.316  0.8645E-01  0.3711E+01
      2.376  0.8329E-01  0.3716E+01
      2.437  0.8258E-01  0.3721E+01
      2.498  0.8487E-01  0.3726E+01
      2.558  0.8999E-01  0.3731E+01
      2.619  0.9750E-01  0.3737E+01
      2.680  0.1068E+00  0.3744E+01
      2.740  0.1167E+00  0.3751E+01
      2.801  0.1262E+00  0.3758E+01
      2.862  0.1346E+00  0.3767E+01
      2.922  0.1402E+00  0.3775E+01
      2.983  0.1389E+00  0.3783E+01
      3.043  0.1269E+00  0.3791E+01
      3.104  0.1043E+00  0.3797E+01
      3.165  0.7791E-01  0.3802E+01
      3.225  0.5669E-01  0.3806E+01
      3.286  0.4550E-01  0.3808E+01
      3.347  0.4167E-01  0.3811E+01
      3.407  0.3901E-01  0.3813E+01
      3.468  0.3512E-01  0.3815E+01
      3.528  0.3403E-01  0.3817E+01
      3.589  0.4125E-01  0.3820E+01
      3.650  0.5616E-01  0.3823E+01
      3.710  0.7033E-01  0.3828E+01
      3.771  0.7381E-01  0.3832E+01
      3.832  0.6311E-01  0.3836E+01
      3.892  0.4314E-01  0.3839E+01
      3.953  0.2255E-01  0.3840E+01
      4.014  0.7660E-02  0.3840E+01
      4.074  0.1274E-04  0.3840E+01
      4.135 -0.2290E-02  0.3840E+01
      4.195 -0.2025E-02  0.3840E+01
      4.256 -0.1154E-02  0.3840E+01
      4.317 -0.5004E-03  0.3840E+01
      4.377 -0.1731E-03  0.3840E+01
      4.438 -0.4868E-04  0.3840E+01
      4.499 -0.1123E-04  0.3840E+01
      4.559 -0.2136E-05  0.3840E+01
      4.620 -0.3356E-06  0.3840E+01
      4.680 -0.4362E-07  0.3840E+01
      4.741 -0.4696E-08  0.3840E+01
      4.802 -0.4189E-09  0.3840E+01
      4.862 -0.3098E-10  0.3840E+01
      4.923 -0.1901E-11  0.3840E+01
      4.984 -0.9678E-13  0.3840E+01
      5.044 -0.4090E-14  0.3840E+01
      5.105 -0.1419E-15  0.3840E+01
      5.165 -0.4578E-17  0.3840E+01
      5.226  0.0000E+00  0.3840E+01
      5.287  0.0000E+00  0.3840E+01
      5.347  0.0000E+00  0.3840E+01
      5.408  0.0000E+00  0.3840E+01
      5.469  0.0000E+00  0.3840E+01
      5.529  0.0000E+00  0.3840E+01
      5.590  0.0000E+00  0.3840E+01
      5.651  0.0000E+00  0.3840E+01
      5.711  0.0000E+00  0.3840E+01
      5.772  0.0000E+00  0.3840E+01
      5.832  0.0000E+00  0.3840E+01
      5.893  0.0000E+00  0.3840E+01
      5.89304964    -12.29601982  301     -0.86670269      1.00000000
    -12.296  0.0000E+00  0.0000E+00  0.0000E+00
    -12.235  0.0000E+00  0.0000E+00  0.0000E+00
    -12.175  0.0000E+00  0.0000E+00  0.0000E+00
    -12.114  0.0000E+00  0.0000E+00  0.0000E+00
    -12.053  0.0000E+00  0.0000E+00  0.0000E+00
    -11.993  0.0000E+00  0.0000E+00  0.0000E+00
    -11.932 -0.2720E-30 -0.2683E-31 -0.9712E-33
    -11.872 -0.3380E-28 -0.3334E-29 -0.1207E-30
    -11.811 -0.3514E-26 -0.3466E-27 -0.1255E-28
    -11.750 -0.3033E-24 -0.2991E-25 -0.1083E-26
    -11.690 -0.2173E-22 -0.2144E-23 -0.7764E-25
    -11.629 -0.1293E-20 -0.1276E-21 -0.4620E-23
    -11.568 -0.6386E-19 -0.6299E-20 -0.2282E-21
    -11.508 -0.2616E-17 -0.2581E-18 -0.9356E-20
    -11.447 -0.8586E-16 -0.8471E-17 -0.3073E-18
    -11.387 -0.2423E-14 -0.2391E-15 -0.8681E-17
    -11.326 -0.5635E-13 -0.5561E-14 -0.2022E-15
    -11.265 -0.1085E-11 -0.1071E-12 -0.3903E-14
    -11.205 -0.1728E-10 -0.1707E-11 -0.6240E-13
    -11.144 -0.2276E-09 -0.2250E-10 -0.8265E-12
    -11.083 -0.2476E-08 -0.2451E-09 -0.9068E-11
    -11.023 -0.2223E-07 -0.2204E-08 -0.8247E-10
    -10.962 -0.1646E-06 -0.1636E-07 -0.6224E-09
    -10.902 -0.1004E-05 -0.1003E-06 -0.3906E-08
    -10.841 -0.5045E-05 -0.5067E-06 -0.2044E-07
    -10.780 -0.2084E-04 -0.2112E-05 -0.8940E-07
    -10.720 -0.7063E-04 -0.7247E-05 -0.3273E-06
    -10.659 -0.1950E-03 -0.2037E-04 -0.9988E-06
    -10.598 -0.4305E-03 -0.4607E-04 -0.2502E-05
    -10.538 -0.7183E-03 -0.7967E-04 -0.4934E-05
    -10.477 -0.7258E-03 -0.8711E-04 -0.6789E-05
    -10.416  0.3112E-03  0.1528E-04 -0.3226E-05
    -10.356  0.3397E-02  0.3424E-03  0.1331E-04
    -10.295  0.8903E-02  0.9419E-03  0.4662E-04
    -10.235  0.1546E-01  0.1665E-02  0.8804E-04
    -10.174  0.2017E-01  0.2197E-02  0.1202E-03
    -10.113  0.2112E-01  0.2345E-02  0.1409E-03
    -10.053  0.1990E-01  0.2338E-02  0.1825E-03
     -9.992  0.2047E-01  0.2656E-02  0.2901E-03
     -9.931  0.2474E-01  0.3484E-02  0.4638E-03
     -9.871  0.3000E-01  0.4393E-02  0.6307E-03
     -9.810  0.3138E-01  0.4680E-02  0.6868E-03
     -9.750  0.2655E-01  0.4004E-02  0.5838E-03
     -9.689  0.1787E-01  0.2730E-02  0.3911E-03
     -9.628  0.1076E-01  0.1751E-02  0.2844E-03
     -9.568  0.9980E-02  0.1915E-02  0.4430E-03
     -9.507  0.1621E-01  0.3384E-02  0.8993E-03
     -9.446  0.2527E-01  0.5400E-02  0.1475E-02
     -9.386  0.3141E-01  0.6835E-02  0.1915E-02
     -9.325  0.3212E-01  0.7098E-02  0.2119E-02
     -9.265  0.2972E-01  0.6439E-02  0.2191E-02
     -9.204  0.2819E-01  0.5405E-02  0.2275E-02
     -9.143  0.2948E-01  0.4307E-02  0.2412E-02
     -9.083  0.3276E-01  0.3382E-02  0.2611E-02
     -9.022  0.3642E-01  0.3177E-02  0.3006E-02
     -8.961  0.4051E-01  0.4432E-02  0.3886E-02
     -8.901  0.4743E-01  0.7427E-02  0.5513E-02
     -8.840  0.5902E-01  0.1139E-01  0.7755E-02
     -8.779  0.7218E-01  0.1462E-01  0.9868E-02
     -8.719  0.7914E-01  0.1555E-01  0.1085E-01
     -8.658  0.7405E-01  0.1384E-01  0.1015E-01
     -8.598  0.5882E-01  0.1059E-01  0.8034E-02
     -8.537  0.4180E-01  0.7468E-02  0.5325E-02
     -8.476  0.3140E-01  0.5893E-02  0.3164E-02
     -8.416  0.3108E-01  0.6709E-02  0.3042E-02
     -8.355  0.3880E-01  0.1006E-01  0.6644E-02
     -8.294  0.5021E-01  0.1520E-01  0.1490E-01
     -8.234  0.6249E-01  0.2040E-01  0.2660E-01
     -8.173  0.7474E-01  0.2349E-01  0.3800E-01
     -8.113  0.8508E-01  0.2299E-01  0.4486E-01
     -8.052  0.8979E-01  0.1934E-01  0.4615E-01
     -7.991  0.8841E-01  0.1517E-01  0.4634E-01
     -7.931  0.8896E-01  0.1408E-01  0.5331E-01
     -7.870  0.1032E+00  0.1840E-01  0.7256E-01
     -7.809  0.1334E+00  0.2751E-01  0.1027E+00
     -7.749  0.1665E+00  0.3814E-01  0.1368E+00
     -7.688  0.1847E+00  0.4660E-01  0.1669E+00
     -7.627  0.1831E+00  0.5117E-01  0.1885E+00
     -7.567  0.1741E+00  0.5281E-01  0.2016E+00
     -7.506  0.1741E+00  0.5375E-01  0.2100E+00
     -7.446  0.1863E+00  0.5548E-01  0.2192E+00
     -7.385  0.1981E+00  0.5784E-01  0.2344E+00
     -7.324  0.1948E+00  0.5981E-01  0.2595E+00
     -7.264  0.1747E+00  0.6076E-01  0.2956E+00
     -7.203  0.1518E+00  0.6078E-01  0.3380E+00
     -7.142  0.1428E+00  0.6011E-01  0.3766E+00
     -7.082  0.1534E+00  0.5884E-01  0.4017E+00
     -7.021  0.1743E+00  0.5702E-01  0.4112E+00
     -6.961  0.1896E+00  0.5484E-01  0.4110E+00
     -6.900  0.1888E+00  0.5251E-01  0.4079E+00
     -6.839  0.1726E+00  0.5036E-01  0.4048E+00
     -6.779  0.1494E+00  0.4899E-01  0.4002E+00
     -6.718  0.1282E+00  0.4903E-01  0.3914E+00
     -6.657  0.1132E+00  0.5068E-01  0.3777E+00
     -6.597  0.1033E+00  0.5322E-01  0.3609E+00
     -6.536  0.9529E-01  0.5515E-01  0.3438E+00
     -6.476  0.8570E-01  0.5498E-01  0.3299E+00
     -6.415  0.7303E-01  0.5228E-01  0.3215E+00
     -6.354  0.5849E-01  0.4803E-01  0.3196E+00
     -6.294  0.4528E-01  0.4393E-01  0.3256E+00
     -6.233  0.3645E-01  0.4141E-01  0.3415E+00
     -6.172  0.3324E-01  0.4091E-01  0.3677E+00
     -6.112  0.3475E-01  0.4183E-01  0.3981E+00
     -6.051  0.3869E-01  0.4308E-01  0.4220E+00
     -5.990  0.4240E-01  0.4377E-01  0.4331E+00
     -5.930  0.4389E-01  0.4361E-01  0.4333E+00
     -5.869  0.4273E-01  0.4276E-01  0.4272E+00
     -5.809  0.4012E-01  0.4148E-01  0.4147E+00
     -5.748  0.3785E-01  0.3996E-01  0.3944E+00
     -5.687  0.3707E-01  0.3842E-01  0.3695E+00
     -5.627  0.3776E-01  0.3722E-01  0.3508E+00
     -5.566  0.3936E-01  0.3678E-01  0.3499E+00
     -5.505  0.4154E-01  0.3733E-01  0.3718E+00
     -5.445  0.4443E-01  0.3882E-01  0.4114E+00
     -5.384  0.4825E-01  0.4117E-01  0.4571E+00
     -5.324  0.5273E-01  0.4451E-01  0.4987E+00
     -5.263  0.5686E-01  0.4894E-01  0.5320E+00
     -5.202  0.5957E-01  0.5383E-01  0.5569E+00
     -5.142  0.6071E-01  0.5774E-01  0.5748E+00
     -5.081  0.6116E-01  0.5933E-01  0.5873E+00
     -5.020  0.6158E-01  0.5846E-01  0.5951E+00
     -4.960  0.6144E-01  0.5639E-01  0.5982E+00
     -4.899  0.5994E-01  0.5490E-01  0.5993E+00
     -4.839  0.5770E-01  0.5515E-01  0.6064E+00
     -4.778  0.5632E-01  0.5706E-01  0.6295E+00
     -4.717  0.5645E-01  0.5937E-01  0.6698E+00
     -4.657  0.5695E-01  0.6051E-01  0.7153E+00
     -4.596  0.5640E-01  0.5986E-01  0.7493E+00
     -4.535  0.5483E-01  0.5845E-01  0.7634E+00
     -4.475  0.5372E-01  0.5839E-01  0.7632E+00
     -4.414  0.5464E-01  0.6135E-01  0.7607E+00
     -4.353  0.5777E-01  0.6707E-01  0.7629E+00
     -4.293  0.6164E-01  0.7326E-01  0.7692E+00
     -4.232  0.6405E-01  0.7688E-01  0.7766E+00
     -4.172  0.6364E-01  0.7631E-01  0.7844E+00
     -4.111  0.6076E-01  0.7244E-01  0.7946E+00
     -4.050  0.5702E-01  0.6767E-01  0.8080E+00
     -3.990  0.5406E-01  0.6377E-01  0.8200E+00
     -3.929  0.5241E-01  0.6090E-01  0.8248E+00
     -3.868  0.5155E-01  0.5864E-01  0.8276E+00
     -3.808  0.5079E-01  0.5761E-01  0.8503E+00
     -3.747  0.4990E-01  0.5948E-01  0.9189E+00
     -3.687  0.4888E-01  0.6508E-01  0.1039E+01
     -3.626  0.4745E-01  0.7273E-01  0.1183E+01
     -3.565  0.4520E-01  0.7871E-01  0.1307E+01
     -3.505  0.4227E-01  0.7983E-01  0.1376E+01
     -3.444  0.3921E-01  0.7554E-01  0.1373E+01
     -3.383  0.3635E-01  0.6797E-01  0.1302E+01
     -3.323  0.3367E-01  0.6029E-01  0.1191E+01
     -3.262  0.3171E-01  0.5493E-01  0.1090E+01
     -3.201  0.3168E-01  0.5258E-01  0.1047E+01
     -3.141  0.3420E-01  0.5239E-01  0.1074E+01
     -3.080  0.3805E-01  0.5280E-01  0.1148E+01
     -3.020  0.4068E-01  0.5254E-01  0.1223E+01
     -2.959  0.4033E-01  0.5124E-01  0.1263E+01
     -2.898  0.3747E-01  0.4939E-01  0.1263E+01
     -2.838  0.3413E-01  0.4784E-01  0.1247E+01
     -2.777  0.3198E-01  0.4718E-01  0.1256E+01
     -2.716  0.3135E-01  0.4760E-01  0.1319E+01
     -2.656  0.3174E-01  0.4916E-01  0.1438E+01
     -2.595  0.3253E-01  0.5179E-01  0.1582E+01
     -2.535  0.3317E-01  0.5487E-01  0.1716E+01
     -2.474  0.3334E-01  0.5734E-01  0.1817E+01
     -2.413  0.3328E-01  0.5862E-01  0.1884E+01
     -2.353  0.3375E-01  0.5932E-01  0.1928E+01
     -2.292  0.3548E-01  0.6080E-01  0.1956E+01
     -2.231  0.3852E-01  0.6366E-01  0.1980E+01
     -2.171  0.4230E-01  0.6708E-01  0.2016E+01
     -2.110  0.4613E-01  0.6933E-01  0.2069E+01
     -2.050  0.4946E-01  0.6903E-01  0.2115E+01
     -1.989  0.5155E-01  0.6590E-01  0.2118E+01
     -1.928  0.5151E-01  0.6091E-01  0.2056E+01
     -1.868  0.4901E-01  0.5574E-01  0.1954E+01
     -1.807  0.4504E-01  0.5197E-01  0.1871E+01
     -1.746  0.4147E-01  0.5048E-01  0.1863E+01
     -1.686  0.3974E-01  0.5147E-01  0.1935E+01
     -1.625  0.3995E-01  0.5455E-01  0.2036E+01
     -1.564  0.4112E-01  0.5873E-01  0.2095E+01
     -1.504  0.4216E-01  0.6258E-01  0.2077E+01
     -1.443  0.4258E-01  0.6479E-01  0.2008E+01
     -1.383  0.4272E-01  0.6461E-01  0.1947E+01
     -1.322  0.4333E-01  0.6205E-01  0.1935E+01
     -1.261  0.4492E-01  0.5809E-01  0.1975E+01
     -1.201  0.4711E-01  0.5462E-01  0.2052E+01
     -1.140  0.4871E-01  0.5363E-01  0.2149E+01
     -1.079  0.4876E-01  0.5575E-01  0.2241E+01
     -1.019  0.4738E-01  0.5973E-01  0.2286E+01
     -0.958  0.4553E-01  0.6318E-01  0.2251E+01
     -0.898  0.4407E-01  0.6435E-01  0.2144E+01
     -0.837  0.4337E-01  0.6304E-01  0.2017E+01
     -0.776  0.4361E-01  0.6034E-01  0.1924E+01
     -0.716  0.4498E-01  0.5749E-01  0.1885E+01
     -0.655  0.4713E-01  0.5514E-01  0.1876E+01
     -0.594  0.4878E-01  0.5332E-01  0.1850E+01
     -0.534  0.4854E-01  0.5185E-01  0.1764E+01
     -0.473  0.4632E-01  0.5050E-01  0.1600E+01
     -0.412  0.4373E-01  0.4921E-01  0.1369E+01
     -0.352  0.4260E-01  0.4824E-01  0.1113E+01
     -0.291  0.4273E-01  0.4782E-01  0.8822E+00
     -0.231  0.4173E-01  0.4767E-01  0.7029E+00
     -0.170  0.3742E-01  0.4736E-01  0.5743E+00
     -0.109  0.3079E-01  0.4742E-01  0.4845E+00
     -0.049  0.2599E-01  0.4972E-01  0.4329E+00
      0.012  0.2708E-01  0.5598E-01  0.4270E+00
      0.073  0.3466E-01  0.6612E-01  0.4631E+00
      0.133  0.4562E-01  0.7817E-01  0.5170E+00
      0.194  0.5549E-01  0.8936E-01  0.5585E+00
      0.254  0.6086E-01  0.9675E-01  0.5679E+00
      0.315  0.6005E-01  0.9770E-01  0.5392E+00
      0.376  0.5293E-01  0.9073E-01  0.4749E+00
      0.436  0.4093E-01  0.7638E-01  0.3830E+00
      0.497  0.2696E-01  0.5741E-01  0.2805E+00
      0.558  0.1492E-01  0.3842E-01  0.1920E+00
      0.618  0.8488E-02  0.2507E-01  0.1415E+00
      0.679  0.9467E-02  0.2234E-01  0.1394E+00
      0.739  0.1670E-01  0.3202E-01  0.1758E+00
      0.800  0.2657E-01  0.5157E-01  0.2250E+00
      0.861  0.3518E-01  0.7571E-01  0.2617E+00
      0.921  0.4072E-01  0.9924E-01  0.2768E+00
      0.982  0.4381E-01  0.1182E+00  0.2784E+00
      1.043  0.4596E-01  0.1297E+00  0.2805E+00
      1.103  0.4813E-01  0.1319E+00  0.2894E+00
      1.164  0.5067E-01  0.1259E+00  0.3014E+00
      1.225  0.5365E-01  0.1157E+00  0.3107E+00
      1.285  0.5680E-01  0.1055E+00  0.3155E+00
      1.346  0.5878E-01  0.9731E-01  0.3145E+00
      1.406  0.5735E-01  0.9065E-01  0.3007E+00
      1.467  0.5098E-01  0.8423E-01  0.2680E+00
      1.528  0.4055E-01  0.7758E-01  0.2207E+00
      1.588  0.2927E-01  0.7215E-01  0.1735E+00
      1.649  0.2053E-01  0.7078E-01  0.1408E+00
      1.710  0.1594E-01  0.7510E-01  0.1273E+00
      1.770  0.1509E-01  0.8302E-01  0.1292E+00
      1.831  0.1723E-01  0.8954E-01  0.1414E+00
      1.891  0.2219E-01  0.9073E-01  0.1608E+00
      1.952  0.2941E-01  0.8622E-01  0.1826E+00
      2.013  0.3653E-01  0.7820E-01  0.1967E+00
      2.073  0.4007E-01  0.6942E-01  0.1929E+00
      2.134  0.3831E-01  0.6244E-01  0.1715E+00
      2.195  0.3304E-01  0.5905E-01  0.1455E+00
      2.255  0.2822E-01  0.5907E-01  0.1291E+00
      2.316  0.2711E-01  0.6065E-01  0.1273E+00
      2.376  0.3045E-01  0.6297E-01  0.1363E+00
      2.437  0.3662E-01  0.6794E-01  0.1500E+00
      2.498  0.4304E-01  0.7839E-01  0.1655E+00
      2.558  0.4775E-01  0.9441E-01  0.1812E+00
      2.619  0.5031E-01  0.1111E+00  0.1946E+00
      2.680  0.5113E-01  0.1209E+00  0.2017E+00
      2.740  0.5062E-01  0.1190E+00  0.2006E+00
      2.801  0.4933E-01  0.1083E+00  0.1942E+00
      2.862  0.4851E-01  0.9651E-01  0.1874E+00
      2.922  0.4933E-01  0.8858E-01  0.1803E+00
      2.983  0.5124E-01  0.8207E-01  0.1673E+00
      3.043  0.5156E-01  0.7158E-01  0.1430E+00
      3.104  0.4752E-01  0.5645E-01  0.1102E+00
      3.165  0.3882E-01  0.4294E-01  0.7925E-01
      3.225  0.2819E-01  0.3811E-01  0.6069E-01
      3.286  0.1917E-01  0.4230E-01  0.5637E-01
      3.347  0.1350E-01  0.4819E-01  0.5805E-01
      3.407  0.1078E-01  0.4785E-01  0.5525E-01
      3.468  0.1027E-01  0.4040E-01  0.4534E-01
      3.528  0.1204E-01  0.3252E-01  0.3565E-01
      3.589  0.1622E-01  0.3154E-01  0.3521E-01
      3.650  0.2156E-01  0.3823E-01  0.4483E-01
      3.710  0.2535E-01  0.4629E-01  0.5581E-01
      3.771  0.2512E-01  0.4808E-01  0.5790E-01
      3.832  0.2043E-01  0.4078E-01  0.4796E-01
      3.892  0.1319E-01  0.2752E-01  0.3106E-01
      3.953  0.6261E-02  0.1404E-01  0.1492E-01
      4.014  0.1616E-02  0.4481E-02  0.4235E-02
      4.074 -0.4799E-03 -0.2673E-03 -0.6660E-03
      4.135 -0.8941E-03 -0.1576E-02 -0.1828E-02
      4.195 -0.6402E-03 -0.1309E-02 -0.1431E-02
      4.256 -0.3214E-03 -0.7226E-03 -0.7764E-03
      4.317 -0.1258E-03 -0.3059E-03 -0.3290E-03
      4.377 -0.3989E-04 -0.1038E-03 -0.1128E-03
      4.438 -0.1042E-04 -0.2875E-04 -0.3173E-04
      4.499 -0.2263E-05 -0.6550E-05 -0.7359E-05
      4.559 -0.4098E-06 -0.1233E-05 -0.1410E-05
      4.620 -0.6196E-07 -0.1921E-06 -0.2235E-06
      4.680 -0.7824E-08 -0.2480E-07 -0.2932E-07
      4.741 -0.8244E-09 -0.2656E-08 -0.3185E-08
      4.802 -0.7245E-10 -0.2359E-09 -0.2866E-09
      4.862 -0.5305E-11 -0.1739E-10 -0.2137E-10
      4.923 -0.3235E-12 -0.1064E-11 -0.1321E-11
      4.984 -0.1641E-13 -0.5408E-13 -0.6768E-13
      5.044 -0.6950E-15 -0.2283E-14 -0.2877E-14
      5.105 -0.2322E-16 -0.7872E-16 -0.1002E-15
      5.165 -0.8060E-18 -0.2540E-17 -0.3375E-17
      5.226  0.0000E+00  0.0000E+00  0.0000E+00
      5.287  0.0000E+00  0.0000E+00  0.0000E+00
      5.347  0.0000E+00  0.0000E+00  0.0000E+00
      5.408  0.0000E+00  0.0000E+00  0.0000E+00
      5.469  0.0000E+00  0.0000E+00  0.0000E+00
      5.529  0.0000E+00  0.0000E+00  0.0000E+00
      5.590  0.0000E+00  0.0000E+00  0.0000E+00
      5.651  0.0000E+00  0.0000E+00  0.0000E+00
      5.711  0.0000E+00  0.0000E+00  0.0000E+00
      5.772  0.0000E+00  0.0000E+00  0.0000E+00
      5.832  0.0000E+00  0.0000E+00  0.0000E+00
      5.893  0.0000E+00  0.0000E+00  0.0000E+00
      5.89304964    -12.29601982  301     -0.86670269      1.00000000
    -12.296  0.0000E+00  0.0000E+00  0.0000E+00
    -12.235  0.0000E+00  0.0000E+00  0.0000E+00
    -12.175  0.0000E+00  0.0000E+00  0.0000E+00
    -12.114  0.0000E+00  0.0000E+00  0.0000E+00
    -12.053  0.0000E+00  0.0000E+00  0.0000E+00
    -11.993  0.0000E+00  0.0000E+00  0.0000E+00
    -11.932 -0.2465E-30 -0.2263E-31 -0.9201E-33
    -11.872 -0.3063E-28 -0.2813E-29 -0.1143E-30
    -11.811 -0.3184E-26 -0.2924E-27 -0.1189E-28
    -11.750 -0.2748E-24 -0.2523E-25 -0.1026E-26
    -11.690 -0.1970E-22 -0.1809E-23 -0.7355E-25
    -11.629 -0.1172E-20 -0.1076E-21 -0.4377E-23
    -11.568 -0.5787E-19 -0.5314E-20 -0.2162E-21
    -11.508 -0.2371E-17 -0.2177E-18 -0.8861E-20
    -11.447 -0.7780E-16 -0.7146E-17 -0.2910E-18
    -11.387 -0.2196E-14 -0.2017E-15 -0.8220E-17
    -11.326 -0.5105E-13 -0.4691E-14 -0.1914E-15
    -11.265 -0.9830E-12 -0.9036E-13 -0.3693E-14
    -11.205 -0.1566E-10 -0.1440E-11 -0.5902E-13
    -11.144 -0.2062E-09 -0.1898E-10 -0.7810E-12
    -11.083 -0.2242E-08 -0.2067E-09 -0.8559E-11
    -11.023 -0.2013E-07 -0.1859E-08 -0.7770E-10
    -10.962 -0.1490E-06 -0.1380E-07 -0.5849E-09
    -10.902 -0.9082E-06 -0.8451E-07 -0.3657E-08
    -10.841 -0.4558E-05 -0.4270E-06 -0.1903E-07
    -10.780 -0.1880E-04 -0.1779E-05 -0.8264E-07
    -10.720 -0.6356E-04 -0.6099E-05 -0.2998E-06
    -10.659 -0.1749E-03 -0.1712E-04 -0.9049E-06
    -10.598 -0.3844E-03 -0.3867E-04 -0.2239E-05
    -10.538 -0.6369E-03 -0.6674E-04 -0.4351E-05
    -10.477 -0.6324E-03 -0.7259E-04 -0.5857E-05
    -10.416  0.3108E-03  0.1410E-04 -0.2451E-05
    -10.356  0.3084E-02  0.2900E-03  0.1251E-04
    -10.295  0.8018E-02  0.7958E-03  0.4234E-04
    -10.235  0.1390E-01  0.1408E-02  0.7935E-04
    -10.174  0.1811E-01  0.1856E-02  0.1078E-03
    -10.113  0.1877E-01  0.1970E-02  0.1244E-03
    -10.053  0.1697E-01  0.1914E-02  0.1555E-03
     -9.992  0.1603E-01  0.2079E-02  0.2395E-03
     -9.931  0.1811E-01  0.2655E-02  0.3796E-03
     -9.871  0.2199E-01  0.3368E-02  0.5185E-03
     -9.810  0.2435E-01  0.3699E-02  0.5710E-03
     -9.750  0.2269E-01  0.3325E-02  0.4924E-03
     -9.689  0.1720E-01  0.2397E-02  0.3325E-03
     -9.628  0.1108E-01  0.1539E-02  0.2330E-03
     -9.568  0.9021E-02  0.1529E-02  0.3509E-03
     -9.507  0.1407E-01  0.2754E-02  0.7307E-03
     -9.446  0.2453E-01  0.4773E-02  0.1234E-02
     -9.386  0.3443E-01  0.6522E-02  0.1636E-02
     -9.325  0.3834E-01  0.7121E-02  0.1824E-02
     -9.265  0.3580E-01  0.6495E-02  0.1881E-02
     -9.204  0.3087E-01  0.5175E-02  0.1969E-02
     -9.143  0.2795E-01  0.3741E-02  0.2173E-02
     -9.083  0.2860E-01  0.2654E-02  0.2498E-02
     -9.022  0.3214E-01  0.2471E-02  0.2985E-02
     -8.961  0.3831E-01  0.3831E-02  0.3799E-02
     -8.901  0.4854E-01  0.6964E-02  0.5153E-02
     -8.840  0.6329E-01  0.1109E-01  0.6976E-02
     -8.779  0.7826E-01  0.1444E-01  0.8663E-02
     -8.719  0.8549E-01  0.1532E-01  0.9390E-02
     -8.658  0.7989E-01  0.1344E-01  0.8804E-02
     -8.598  0.6391E-01  0.1005E-01  0.7240E-02
     -8.537  0.4560E-01  0.6979E-02  0.5339E-02
     -8.476  0.3405E-01  0.5521E-02  0.3824E-02
     -8.416  0.3596E-01  0.6271E-02  0.3801E-02
     -8.355  0.5293E-01  0.9359E-02  0.6843E-02
     -8.294  0.7904E-01  0.1429E-01  0.1404E-01
     -8.234  0.1025E+00  0.1955E-01  0.2449E-01
     -8.173  0.1122E+00  0.2298E-01  0.3474E-01
     -8.113  0.1049E+00  0.2299E-01  0.4048E-01
     -8.052  0.8646E-01  0.1995E-01  0.4002E-01
     -7.991  0.6755E-01  0.1631E-01  0.3686E-01
     -7.931  0.5846E-01  0.1520E-01  0.3882E-01
     -7.870  0.6504E-01  0.1845E-01  0.5298E-01
     -7.809  0.8660E-01  0.2541E-01  0.8010E-01
     -7.749  0.1158E+00  0.3340E-01  0.1130E+00
     -7.688  0.1411E+00  0.3958E-01  0.1410E+00
     -7.627  0.1526E+00  0.4270E-01  0.1567E+00
     -7.567  0.1487E+00  0.4366E-01  0.1613E+00
     -7.506  0.1380E+00  0.4432E-01  0.1636E+00
     -7.446  0.1328E+00  0.4560E-01  0.1734E+00
     -7.385  0.1396E+00  0.4706E-01  0.1959E+00
     -7.324  0.1567E+00  0.4829E-01  0.2299E+00
     -7.264  0.1780E+00  0.5008E-01  0.2711E+00
     -7.203  0.1982E+00  0.5352E-01  0.3136E+00
     -7.142  0.2155E+00  0.5816E-01  0.3523E+00
     -7.082  0.2303E+00  0.6223E-01  0.3852E+00
     -7.021  0.2413E+00  0.6432E-01  0.4135E+00
     -6.961  0.2433E+00  0.6417E-01  0.4384E+00
     -6.900  0.2302E+00  0.6207E-01  0.4568E+00