  64  64   1   0
  0.4684424E+02  0.1133400E-08  0.1132809E-08  0.2694011E-08  0.1000000E-15
  1.000000000000000E-004
  CAR 
 unknown system                          
      6.92239854    -10.68391171  301     -1.41235574      1.00000000
    -10.684  0.0000E+00  0.0000E+00
    -10.625  0.0000E+00  0.0000E+00
    -10.567  0.0000E+00  0.0000E+00
    -10.508  0.0000E+00  0.0000E+00
    -10.449  0.0000E+00  0.0000E+00
    -10.390  0.0000E+00  0.0000E+00
    -10.332 -0.8139E-31 -0.4777E-32
    -10.273 -0.8986E-29 -0.5321E-30
    -10.214 -0.8410E-27 -0.4989E-28
    -10.156 -0.6609E-25 -0.3929E-26
    -10.097 -0.4365E-23 -0.2601E-24
    -10.038 -0.2421E-21 -0.1447E-22
     -9.980 -0.1128E-19 -0.6767E-21
     -9.921 -0.4417E-18 -0.2660E-19
     -9.862 -0.1393E-16 -0.8438E-18
     -9.804 -0.3882E-15 -0.2362E-16
     -9.745 -0.8955E-14 -0.5492E-15
     -9.686 -0.1733E-12 -0.1072E-13
     -9.628 -0.2814E-11 -0.1759E-12
     -9.569 -0.3830E-10 -0.2424E-11
     -9.510 -0.4370E-09 -0.2807E-10
     -9.451 -0.4179E-08 -0.2733E-09
     -9.393 -0.3350E-07 -0.2239E-08
     -9.334 -0.2250E-06 -0.1544E-07
     -9.275 -0.1266E-05 -0.8975E-07
     -9.217 -0.5964E-05 -0.4398E-06
     -9.158 -0.2347E-04 -0.1817E-05
     -9.099 -0.7672E-04 -0.6320E-05
     -9.041 -0.2060E-03 -0.1841E-04
     -8.982 -0.4422E-03 -0.4436E-04
     -8.923 -0.7098E-03 -0.8602E-04
     -8.865 -0.6624E-03 -0.1249E-03
     -8.806  0.3906E-03 -0.1020E-03
     -8.747  0.3177E-02  0.8447E-04
     -8.689  0.7733E-02  0.5383E-03
     -8.630  0.1294E-01  0.1298E-02
     -8.571  0.1721E-01  0.2308E-02
     -8.512  0.1999E-01  0.3481E-02
     -8.454  0.2208E-01  0.4776E-02
     -8.395  0.2411E-01  0.6191E-02
     -8.336  0.2513E-01  0.7666E-02
     -8.278  0.2364E-01  0.9053E-02
     -8.219  0.1979E-01  0.1021E-01
     -8.160  0.1590E-01  0.1115E-01
     -8.102  0.1465E-01  0.1201E-01
     -8.043  0.1739E-01  0.1303E-01
     -7.984  0.2386E-01  0.1443E-01
     -7.926  0.3342E-01  0.1639E-01
     -7.867  0.4661E-01  0.1913E-01
     -7.808  0.6663E-01  0.2304E-01
     -7.750  0.9925E-01  0.2886E-01
     -7.691  0.1504E+00  0.3769E-01
     -7.632  0.2227E+00  0.5076E-01
     -7.573  0.3138E+00  0.6918E-01
     -7.515  0.4155E+00  0.9356E-01
     -7.456  0.5153E+00  0.1238E+00
     -7.397  0.6002E+00  0.1590E+00
     -7.339  0.6622E+00  0.1979E+00
     -7.280  0.7014E+00  0.2391E+00
     -7.221  0.7230E+00  0.2815E+00
     -7.163  0.7320E+00  0.3244E+00
     -7.104  0.7317E+00  0.3674E+00
     -7.045  0.7266E+00  0.4100E+00
     -6.987  0.7252E+00  0.4526E+00
     -6.928  0.7366E+00  0.4958E+00
     -6.869  0.7622E+00  0.5405E+00
     -6.811  0.7926E+00  0.5871E+00
     -6.752  0.8123E+00  0.6347E+00
     -6.693  0.8111E+00  0.6823E+00
     -6.634  0.7943E+00  0.7289E+00
     -6.576  0.7797E+00  0.7747E+00
     -6.517  0.7835E+00  0.8207E+00
     -6.458  0.8070E+00  0.8680E+00
     -6.400  0.8365E+00  0.9171E+00
     -6.341  0.8560E+00  0.9674E+00
     -6.282  0.8606E+00  0.1018E+01
     -6.224  0.8594E+00  0.1068E+01
     -6.165  0.8665E+00  0.1119E+01
     -6.106  0.8897E+00  0.1171E+01
     -6.048  0.9265E+00  0.1226E+01
     -5.989  0.9657E+00  0.1282E+01
     -5.930  0.9939E+00  0.1341E+01
     -5.872  0.1000E+01  0.1399E+01
     -5.813  0.9817E+00  0.1457E+01
     -5.754  0.9463E+00  0.1513E+01
     -5.695  0.9098E+00  0.1566E+01
     -5.637  0.8888E+00  0.1618E+01
     -5.578  0.8929E+00  0.1671E+01
     -5.519  0.9207E+00  0.1725E+01
     -5.461  0.9622E+00  0.1781E+01
     -5.402  0.1003E+01  0.1840E+01
     -5.343  0.1032E+01  0.1900E+01
     -5.285  0.1044E+01  0.1962E+01
     -5.226  0.1043E+01  0.2023E+01
     -5.167  0.1038E+01  0.2084E+01
     -5.109  0.1035E+01  0.2145E+01
     -5.050  0.1036E+01  0.2205E+01
     -4.991  0.1038E+01  0.2266E+01
     -4.933  0.1039E+01  0.2327E+01
     -4.874  0.1038E+01  0.2388E+01
     -4.815  0.1040E+01  0.2449E+01
     -4.756  0.1050E+01  0.2511E+01
     -4.698  0.1063E+01  0.2573E+01
     -4.639  0.1062E+01  0.2636E+01
     -4.580  0.1025E+01  0.2696E+01
     -4.522  0.9364E+00  0.2751E+01
     -4.463  0.7996E+00  0.2798E+01
     -4.404  0.6370E+00  0.2835E+01
     -4.346  0.4780E+00  0.2863E+01
     -4.287  0.3467E+00  0.2883E+01
     -4.228  0.2529E+00  0.2898E+01
     -4.170  0.1931E+00  0.2910E+01
     -4.111  0.1569E+00  0.2919E+01
     -4.052  0.1359E+00  0.2927E+01
     -3.994  0.1261E+00  0.2934E+01
     -3.935  0.1268E+00  0.2942E+01
     -3.876  0.1377E+00  0.2950E+01
     -3.817  0.1571E+00  0.2959E+01
     -3.759  0.1818E+00  0.2970E+01
     -3.700  0.2069E+00  0.2982E+01
     -3.641  0.2285E+00  0.2995E+01
     -3.583  0.2456E+00  0.3010E+01
     -3.524  0.2603E+00  0.3025E+01
     -3.465  0.2757E+00  0.3041E+01
     -3.407  0.2927E+00  0.3058E+01
     -3.348  0.3088E+00  0.3076E+01
     -3.289  0.3192E+00  0.3095E+01
     -3.231  0.3223E+00  0.3114E+01
     -3.172  0.3221E+00  0.3133E+01
     -3.113  0.3260E+00  0.3152E+01
     -3.055  0.3380E+00  0.3172E+01
     -2.996  0.3538E+00  0.3193E+01
     -2.937  0.3636E+00  0.3214E+01
     -2.878  0.3605E+00  0.3235E+01
     -2.820  0.3461E+00  0.3255E+01
     -2.761  0.3287E+00  0.3275E+01
     -2.702  0.3162E+00  0.3293E+01
     -2.644  0.3098E+00  0.3311E+01
     -2.585  0.3038E+00  0.3329E+01
     -2.526  0.2893E+00  0.3346E+01
     -2.468  0.2603E+00  0.3362E+01
     -2.409  0.2186E+00  0.3374E+01
     -2.350  0.1736E+00  0.3385E+01
     -2.292  0.1377E+00  0.3393E+01
     -2.233  0.1194E+00  0.3400E+01
     -2.174  0.1178E+00  0.3407E+01
     -2.116  0.1233E+00  0.3414E+01
     -2.057  0.1236E+00  0.3421E+01
     -1.998  0.1130E+00  0.3428E+01
     -1.939  0.9591E-01  0.3433E+01
     -1.881  0.8265E-01  0.3438E+01
     -1.822  0.8077E-01  0.3443E+01
     -1.763  0.8882E-01  0.3448E+01
     -1.705  0.9822E-01  0.3454E+01
     -1.646  0.1008E+00  0.3460E+01
     -1.587  0.9490E-01  0.3465E+01
     -1.529  0.8570E-01  0.3470E+01
     -1.470  0.8059E-01  0.3475E+01
     -1.411  0.8474E-01  0.3480E+01
     -1.353  0.9854E-01  0.3486E+01
     -1.294  0.1170E+00  0.3493E+01
     -1.235  0.1319E+00  0.3500E+01
     -1.177  0.1361E+00  0.3508E+01
     -1.118  0.1287E+00  0.3516E+01
     -1.059  0.1155E+00  0.3523E+01
     -1.000  0.1036E+00  0.3529E+01
     -0.942  0.9639E-01  0.3535E+01
     -0.883  0.9149E-01  0.3540E+01
     -0.824  0.8468E-01  0.3545E+01
     -0.766  0.7419E-01  0.3549E+01
     -0.707  0.6276E-01  0.3553E+01
     -0.648  0.5661E-01  0.3556E+01
     -0.590  0.6153E-01  0.3560E+01
     -0.531  0.7861E-01  0.3564E+01
     -0.472  0.1034E+00  0.3571E+01
     -0.414  0.1293E+00  0.3578E+01
     -0.355  0.1508E+00  0.3587E+01
     -0.296  0.1641E+00  0.3597E+01
     -0.238  0.1655E+00  0.3606E+01
     -0.179  0.1537E+00  0.3615E+01
     -0.120  0.1312E+00  0.3623E+01
     -0.061  0.1046E+00  0.3629E+01
     -0.003  0.8174E-01  0.3634E+01
      0.056  0.6954E-01  0.3638E+01
      0.115  0.7125E-01  0.3642E+01
      0.173  0.8344E-01  0.3647E+01
      0.232  0.9577E-01  0.3653E+01
      0.291  0.9731E-01  0.3658E+01
      0.349  0.8646E-01  0.3664E+01
      0.408  0.7386E-01  0.3668E+01
      0.467  0.7265E-01  0.3672E+01
      0.525  0.8528E-01  0.3677E+01
      0.584  0.1016E+00  0.3683E+01
      0.643  0.1108E+00  0.3690E+01
      0.702  0.1126E+00  0.3696E+01
      0.760  0.1156E+00  0.3703E+01
      0.819  0.1250E+00  0.3710E+01
      0.878  0.1362E+00  0.3718E+01
      0.936  0.1403E+00  0.3727E+01
      0.995  0.1344E+00  0.3734E+01
      1.054  0.1234E+00  0.3742E+01
      1.112  0.1130E+00  0.3748E+01
      1.171  0.1032E+00  0.3754E+01
      1.230  0.8963E-01  0.3760E+01
      1.288  0.7115E-01  0.3764E+01
      1.347  0.5443E-01  0.3767E+01
      1.406  0.5007E-01  0.3770E+01
      1.464  0.6378E-01  0.3774E+01
      1.523  0.9066E-01  0.3779E+01
      1.582  0.1175E+00  0.3786E+01
      1.641  0.1310E+00  0.3794E+01
      1.699  0.1259E+00  0.3801E+01
      1.758  0.1065E+00  0.3807E+01
      1.817  0.8301E-01  0.3812E+01
      1.875  0.6503E-01  0.3816E+01
      1.934  0.5755E-01  0.3819E+01
      1.993  0.6002E-01  0.3823E+01
      2.051  0.6848E-01  0.3827E+01
      2.110  0.7853E-01  0.3831E+01
      2.169  0.8697E-01  0.3837E+01
      2.227  0.9144E-01  0.3842E+01
      2.286  0.9018E-01  0.3847E+01
      2.345  0.8326E-01  0.3852E+01
      2.403  0.7420E-01  0.3856E+01
      2.462  0.6916E-01  0.3861E+01
      2.521  0.7324E-01  0.3865E+01
      2.580  0.8612E-01  0.3870E+01
      2.638  0.1009E+00  0.3876E+01
      2.697  0.1082E+00  0.3882E+01
      2.756  0.1044E+00  0.3888E+01
      2.814  0.9472E-01  0.3894E+01
      2.873  0.8883E-01  0.3899E+01
      2.932  0.9097E-01  0.3904E+01
      2.990  0.9681E-01  0.3910E+01
      3.049  0.1000E+00  0.3916E+01
      3.108  0.1011E+00  0.3922E+01
      3.166  0.1079E+00  0.3928E+01
      3.225  0.1265E+00  0.3936E+01
      3.284  0.1540E+00  0.3945E+01
      3.342  0.1803E+00  0.3955E+01
      3.401  0.1963E+00  0.3967E+01
      3.460  0.1985E+00  0.3978E+01
      3.519  0.1888E+00  0.3989E+01
      3.577  0.1721E+00  0.4000E+01
      3.636  0.1550E+00  0.4009E+01
      3.695  0.1458E+00  0.4017E+01
      3.753  0.1511E+00  0.4026E+01
      3.812  0.1727E+00  0.4036E+01
      3.871  0.2050E+00  0.4048E+01
      3.929  0.2363E+00  0.4062E+01
      3.988  0.2550E+00  0.4077E+01
      4.047  0.2566E+00  0.4092E+01
      4.105  0.2470E+00  0.4107E+01
      4.164  0.2364E+00  0.4121E+01
      4.223  0.2305E+00  0.4134E+01
      4.281  0.2257E+00  0.4147E+01
      4.340  0.2139E+00  0.4160E+01
      4.399  0.1905E+00  0.4171E+01
      4.458  0.1577E+00  0.4180E+01
      4.516  0.1211E+00  0.4187E+01
      4.575  0.8559E-01  0.4192E+01
      4.634  0.5398E-01  0.4196E+01
      4.692  0.2898E-01  0.4197E+01
      4.751  0.1296E-01  0.4198E+01
      4.810  0.6188E-02  0.4198E+01
      4.868  0.5842E-02  0.4199E+01
      4.927  0.7393E-02  0.4199E+01
      4.986  0.7436E-02  0.4200E+01
      5.044  0.5333E-02  0.4200E+01
      5.103  0.2484E-02  0.4200E+01
      5.162  0.3970E-03  0.4200E+01
      5.220 -0.4738E-03  0.4200E+01
      5.279 -0.5307E-03  0.4200E+01
      5.338 -0.3208E-03  0.4200E+01
      5.397 -0.1396E-03  0.4200E+01
      5.455 -0.4714E-04  0.4200E+01
      5.514 -0.1274E-04  0.4200E+01
      5.573 -0.2802E-05  0.4200E+01
      5.631 -0.5063E-06  0.4200E+01
      5.690 -0.7562E-07  0.4200E+01
      5.749 -0.9373E-08  0.4200E+01
      5.807 -0.9673E-09  0.4200E+01
      5.866 -0.8329E-10  0.4200E+01
      5.925 -0.5994E-11  0.4200E+01
      5.983 -0.3610E-12  0.4200E+01
      6.042 -0.1821E-13  0.4200E+01
      6.101 -0.7709E-15  0.4200E+01
      6.159 -0.2838E-16  0.4200E+01
      6.218  0.0000E+00  0.4200E+01
      6.277  0.0000E+00  0.4200E+01
      6.336  0.0000E+00  0.4200E+01
      6.394  0.0000E+00  0.4200E+01
      6.453  0.0000E+00  0.4200E+01
      6.512  0.0000E+00  0.4200E+01
      6.570  0.0000E+00  0.4200E+01
      6.629  0.0000E+00  0.4200E+01
      6.688  0.0000E+00  0.4200E+01
      6.746  0.0000E+00  0.4200E+01
      6.805  0.0000E+00  0.4200E+01
      6.864  0.0000E+00  0.4200E+01
      6.922  0.0000E+00  0.4200E+01
      6.92239854    -10.68391171  301     -1.41235574      1.00000000
    -10.684  0.0000E+00  0.0000E+00  0.0000E+00
    -10.625  0.0000E+00  0.0000E+00  0.0000E+00
    -10.567  0.0000E+00  0.0000E+00  0.0000E+00
    -10.508  0.0000E+00  0.0000E+00  0.0000E+00
    -10.449  0.0000E+00  0.0000E+00  0.0000E+00
    -10.390  0.0000E+00  0.0000E+00  0.0000E+00
    -10.332 -0.9175E-31 -0.6460E-32 -0.4783E-32
    -10.273 -0.1013E-28 -0.7131E-30 -0.5280E-30
    -10.214 -0.9480E-27 -0.6676E-28 -0.4943E-28
    -10.156 -0.7450E-25 -0.5247E-26 -0.3885E-26
    -10.097 -0.4920E-23 -0.3465E-24 -0.2566E-24
    -10.038 -0.2730E-21 -0.1923E-22 -0.1424E-22
     -9.980 -0.1272E-19 -0.8962E-21 -0.6637E-21
     -9.921 -0.4979E-18 -0.3509E-19 -0.2599E-19
     -9.862 -0.1570E-16 -0.1107E-17 -0.8199E-18
     -9.804 -0.4375E-15 -0.3086E-16 -0.2287E-16
     -9.745 -0.1009E-13 -0.7125E-15 -0.5281E-15
     -9.686 -0.1954E-12 -0.1381E-13 -0.1024E-13
     -9.628 -0.3172E-11 -0.2244E-12 -0.1665E-12
     -9.569 -0.4317E-10 -0.3060E-11 -0.2272E-11
     -9.510 -0.4925E-09 -0.3501E-10 -0.2602E-10
     -9.451 -0.4709E-08 -0.3359E-09 -0.2500E-09
     -9.393 -0.3774E-07 -0.2705E-08 -0.2017E-08
     -9.334 -0.2534E-06 -0.1828E-07 -0.1366E-07
     -9.275 -0.1426E-05 -0.1037E-06 -0.7777E-07
     -9.217 -0.6714E-05 -0.4938E-06 -0.3717E-06
     -9.158 -0.2641E-04 -0.1968E-05 -0.1489E-05
     -9.099 -0.8628E-04 -0.6539E-05 -0.4977E-05
     -9.041 -0.2315E-03 -0.1790E-04 -0.1373E-04
     -8.982 -0.4965E-03 -0.3940E-04 -0.3053E-04
     -8.923 -0.7961E-03 -0.6561E-04 -0.5176E-04
     -8.865 -0.7415E-03 -0.6734E-04 -0.5593E-04
     -8.806  0.4412E-03  0.1648E-04  0.2429E-05
     -8.747  0.3565E-02  0.2531E-03  0.1737E-03
     -8.689  0.8670E-02  0.6524E-03  0.4673E-03
     -8.630  0.1451E-01  0.1129E-02  0.8306E-03
     -8.571  0.1933E-01  0.1571E-02  0.1209E-02
     -8.512  0.2254E-01  0.1962E-02  0.1630E-02
     -8.454  0.2502E-01  0.2382E-02  0.2161E-02
     -8.395  0.2738E-01  0.2825E-02  0.2725E-02
     -8.336  0.2842E-01  0.3094E-02  0.3031E-02
     -8.278  0.2642E-01  0.2991E-02  0.2794E-02
     -8.219  0.2176E-01  0.2600E-02  0.1972E-02
     -8.160  0.1731E-01  0.2296E-02  0.6621E-03
     -8.102  0.1621E-01  0.2442E-02 -0.1234E-02
     -8.043  0.1962E-01  0.3100E-02 -0.3763E-02
     -7.984  0.2656E-01  0.4009E-02 -0.5410E-02
     -7.926  0.3485E-01  0.4751E-02 -0.8321E-03
     -7.867  0.4237E-01  0.5013E-02  0.1994E-01
     -7.808  0.4852E-01  0.4924E-02  0.6874E-01
     -7.750  0.5556E-01  0.5272E-02  0.1547E+00
     -7.691  0.6795E-01  0.7225E-02  0.2832E+00
     -7.632  0.8878E-01  0.1151E-01  0.4604E+00
     -7.573  0.1161E+00  0.1772E-01  0.6925E+00
     -7.515  0.1428E+00  0.2450E-01  0.9733E+00
     -7.456  0.1617E+00  0.3053E-01  0.1269E+01
     -7.397  0.1691E+00  0.3538E-01  0.1525E+01
     -7.339  0.1660E+00  0.3941E-01  0.1701E+01
     -7.280  0.1555E+00  0.4307E-01  0.1797E+01
     -7.221  0.1415E+00  0.4630E-01  0.1845E+01
     -7.163  0.1282E+00  0.4866E-01  0.1876E+01
     -7.104  0.1191E+00  0.4975E-01  0.1895E+01
     -7.045  0.1146E+00  0.4937E-01  0.1899E+01
     -6.987  0.1112E+00  0.4754E-01  0.1899E+01
     -6.928  0.1045E+00  0.4439E-01  0.1909E+01
     -6.869  0.9195E-01  0.4029E-01  0.1936E+01
     -6.811  0.7519E-01  0.3593E-01  0.1965E+01
     -6.752  0.5807E-01  0.3207E-01  0.1973E+01
     -6.693  0.4384E-01  0.2908E-01  0.1955E+01
     -6.634  0.3385E-01  0.2689E-01  0.1938E+01
     -6.576  0.2812E-01  0.2524E-01  0.1961E+01
     -6.517  0.2612E-01  0.2401E-01  0.2042E+01
     -6.458  0.2682E-01  0.2319E-01  0.2148E+01
     -6.400  0.2873E-01  0.2271E-01  0.2218E+01
     -6.341  0.3049E-01  0.2245E-01  0.2215E+01
     -6.282  0.3164E-01  0.2243E-01  0.2174E+01
     -6.224  0.3283E-01  0.2290E-01  0.2183E+01
     -6.165  0.3498E-01  0.2412E-01  0.2324E+01
     -6.106  0.3810E-01  0.2592E-01  0.2611E+01
     -6.048  0.4090E-01  0.2770E-01  0.2968E+01
     -5.989  0.4167E-01  0.2897E-01  0.3270E+01
     -5.930  0.3970E-01  0.2991E-01  0.3411E+01
     -5.872  0.3594E-01  0.3138E-01  0.3365E+01
     -5.813  0.3239E-01  0.3408E-01  0.3189E+01
     -5.754  0.3085E-01  0.3779E-01  0.2986E+01
     -5.695  0.3209E-01  0.4131E-01  0.2854E+01
     -5.637  0.3577E-01  0.4334E-01  0.2854E+01
     -5.578  0.4080E-01  0.4333E-01  0.2988E+01
     -5.519  0.4585E-01  0.4167E-01  0.3204E+01
     -5.461  0.4991E-01  0.3910E-01  0.3419E+01
     -5.402  0.5250E-01  0.3628E-01  0.3568E+01
     -5.343  0.5357E-01  0.3365E-01  0.3633E+01
     -5.285  0.5327E-01  0.3148E-01  0.3639E+01
     -5.226  0.5170E-01  0.2981E-01  0.3617E+01
     -5.167  0.4891E-01  0.2846E-01  0.3578E+01
     -5.109  0.4501E-01  0.2728E-01  0.3524E+01
     -5.050  0.4048E-01  0.2624E-01  0.3455E+01
     -4.991  0.3608E-01  0.2533E-01  0.3371E+01
     -4.933  0.3275E-01  0.2445E-01  0.3265E+01
     -4.874  0.3127E-01  0.2358E-01  0.3141E+01
     -4.815  0.3199E-01  0.2289E-01  0.3032E+01
     -4.756  0.3478E-01  0.2271E-01  0.2986E+01
     -4.698  0.3920E-01  0.2312E-01  0.3014E+01
     -4.639  0.4465E-01  0.2385E-01  0.3064E+01
     -4.580  0.4992E-01  0.2421E-01  0.3036E+01
     -4.522  0.5284E-01  0.2331E-01  0.2851E+01
     -4.463  0.5125E-01  0.2060E-01  0.2497E+01
     -4.404  0.4516E-01  0.1646E-01  0.2034E+01
     -4.346  0.3783E-01  0.1237E-01  0.1557E+01
     -4.287  0.3380E-01  0.1008E-01  0.1146E+01
     -4.228  0.3540E-01  0.1039E-01  0.8375E+00
     -4.170  0.4105E-01  0.1266E-01  0.6202E+00
     -4.111  0.4682E-01  0.1548E-01  0.4628E+00
     -4.052  0.4957E-01  0.1782E-01  0.3433E+00
     -3.994  0.4862E-01  0.1934E-01  0.2574E+00
     -3.935  0.4547E-01  0.2001E-01  0.2066E+00
     -3.876  0.4247E-01  0.1991E-01  0.1867E+00
     -3.817  0.4163E-01  0.1930E-01  0.1867E+00
     -3.759  0.4368E-01  0.1866E-01  0.1949E+00
     -3.700  0.4760E-01  0.1829E-01  0.2038E+00
     -3.641  0.5141E-01  0.1831E-01  0.2111E+00
     -3.583  0.5393E-01  0.1902E-01  0.2190E+00
     -3.524  0.5573E-01  0.2113E-01  0.2313E+00
     -3.465  0.5795E-01  0.2527E-01  0.2504E+00
     -3.407  0.6028E-01  0.3095E-01  0.2735E+00
     -3.348  0.6040E-01  0.3609E-01  0.2910E+00
     -3.289  0.5591E-01  0.3823E-01  0.2913E+00
     -3.231  0.4680E-01  0.3646E-01  0.2697E+00
     -3.172  0.3571E-01  0.3234E-01  0.2334E+00
     -3.113  0.2607E-01  0.2852E-01  0.1966E+00
     -3.055  0.1985E-01  0.2672E-01  0.1713E+00
     -2.996  0.1704E-01  0.2669E-01  0.1598E+00
     -2.937  0.1648E-01  0.2712E-01  0.1564E+00
     -2.878  0.1710E-01  0.2710E-01  0.1536E+00
     -2.820  0.1859E-01  0.2675E-01  0.1482E+00
     -2.761  0.2136E-01  0.2682E-01  0.1414E+00
     -2.702  0.2570E-01  0.2778E-01  0.1356E+00
     -2.644  0.3095E-01  0.2931E-01  0.1311E+00
     -2.585  0.3546E-01  0.3051E-01  0.1259E+00
     -2.526  0.3771E-01  0.3073E-01  0.1180E+00
     -2.468  0.3758E-01  0.3016E-01  0.1068E+00
     -2.409  0.3635E-01  0.2968E-01  0.9380E-01
     -2.350  0.3580E-01  0.3011E-01  0.8193E-01
     -2.292  0.3740E-01  0.3169E-01  0.7411E-01
     -2.233  0.4180E-01  0.3394E-01  0.7182E-01
     -2.174  0.4807E-01  0.3569E-01  0.7377E-01
     -2.116  0.5348E-01  0.3534E-01  0.7602E-01
     -2.057  0.5477E-01  0.3196E-01  0.7408E-01
     -1.998  0.5069E-01  0.2652E-01  0.6614E-01
     -1.939  0.4365E-01  0.2211E-01  0.5494E-01
     -1.881  0.3850E-01  0.2212E-01  0.4610E-01
     -1.822  0.3894E-01  0.2761E-01  0.4384E-01
     -1.763  0.4446E-01  0.3615E-01  0.4758E-01
     -1.705  0.5071E-01  0.4344E-01  0.5271E-01
     -1.646  0.5324E-01  0.4667E-01  0.5463E-01
     -1.587  0.5094E-01  0.4623E-01  0.5215E-01
     -1.529  0.4638E-01  0.4473E-01  0.4756E-01
     -1.470  0.4362E-01  0.4466E-01  0.4452E-01
     -1.411  0.4583E-01  0.4730E-01  0.4624E-01
     -1.353  0.5371E-01  0.5277E-01  0.5443E-01
     -1.294  0.6464E-01  0.5997E-01  0.6794E-01
     -1.235  0.7312E-01  0.6633E-01  0.8162E-01
     -1.177  0.7357E-01  0.6897E-01  0.8816E-01
     -1.118  0.6415E-01  0.6701E-01  0.8312E-01
     -1.059  0.4850E-01  0.6238E-01  0.6883E-01
     -1.000  0.3339E-01  0.5788E-01  0.5283E-01
     -0.942  0.2409E-01  0.5439E-01  0.4228E-01
     -0.883  0.2130E-01  0.5044E-01  0.3918E-01
     -0.824  0.2190E-01  0.4436E-01  0.4021E-01
     -0.766  0.2209E-01  0.3670E-01  0.4048E-01
     -0.707  0.2021E-01  0.3076E-01  0.3791E-01
     -0.648  0.1780E-01  0.3123E-01  0.3519E-01
     -0.590  0.1850E-01  0.4131E-01  0.3730E-01
     -0.531  0.2533E-01  0.5969E-01  0.4653E-01
     -0.472  0.3831E-01  0.8072E-01  0.6009E-01
     -0.414  0.5416E-01  0.9864E-01  0.7246E-01
     -0.355  0.6819E-01  0.1113E+00  0.7971E-01
     -0.296  0.7623E-01  0.1191E+00  0.8118E-01
     -0.238  0.7576E-01  0.1206E+00  0.7807E-01
     -0.179  0.6673E-01  0.1130E+00  0.7155E-01
     -0.120  0.5216E-01  0.9585E-01  0.6228E-01
     -0.061  0.3715E-01  0.7419E-01  0.5125E-01
     -0.003  0.2623E-01  0.5581E-01  0.4073E-01
      0.056  0.2121E-01  0.4616E-01  0.3416E-01
      0.115  0.2119E-01  0.4595E-01  0.3424E-01
      0.173  0.2384E-01  0.5192E-01  0.4014E-01
      0.232  0.2630E-01  0.5872E-01  0.4679E-01
      0.291  0.2603E-01  0.6175E-01  0.4822E-01
      0.349  0.2233E-01  0.6087E-01  0.4279E-01
      0.408  0.1709E-01  0.6122E-01  0.3491E-01
      0.467  0.1357E-01  0.6796E-01  0.3078E-01
      0.525  0.1379E-01  0.7956E-01  0.3253E-01
      0.584  0.1721E-01  0.8832E-01  0.3694E-01
      0.643  0.2190E-01  0.8890E-01  0.4019E-01
      0.702  0.2675E-01  0.8504E-01  0.4273E-01
      0.760  0.3237E-01  0.8568E-01  0.4841E-01
      0.819  0.3956E-01  0.9501E-01  0.5911E-01
      0.878  0.4720E-01  0.1083E+00  0.7134E-01
      0.936  0.5210E-01  0.1175E+00  0.7894E-01
      0.995  0.5126E-01  0.1186E+00  0.7861E-01
      1.054  0.4438E-01  0.1131E+00  0.7202E-01
      1.112  0.3409E-01  0.1032E+00  0.6281E-01
      1.171  0.2385E-01  0.8914E-01  0.5274E-01
      1.230  0.1574E-01  0.7006E-01  0.4145E-01
      1.288  0.1011E-01  0.4820E-01  0.2937E-01
      1.347  0.6959E-02  0.2971E-01  0.1945E-01
      1.406  0.7013E-02  0.2181E-01  0.1581E-01
      1.464  0.1115E-01  0.2829E-01  0.2059E-01
      1.523  0.1872E-01  0.4691E-01  0.3203E-01
      1.582  0.2670E-01  0.6984E-01  0.4530E-01
      1.641  0.3109E-01  0.8718E-01  0.5501E-01
      1.699  0.2952E-01  0.9200E-01  0.5778E-01
      1.758  0.2282E-01  0.8408E-01  0.5335E-01
      1.817  0.1418E-01  0.6928E-01  0.4429E-01
      1.875  0.6889E-02  0.5518E-01  0.3441E-01
      1.934  0.2635E-02  0.4669E-01  0.2702E-01
      1.993  0.1373E-02  0.4462E-01  0.2359E-01
      2.051  0.2304E-02  0.4696E-01  0.2386E-01
      2.110  0.4790E-02  0.5138E-01  0.2682E-01
      2.169  0.8525E-02  0.5669E-01  0.3144E-01
      2.227  0.1305E-01  0.6237E-01  0.3640E-01
      2.286  0.1734E-01  0.6707E-01  0.3997E-01
      2.345  0.2019E-01  0.6861E-01  0.4075E-01
      2.403  0.2104E-01  0.6586E-01  0.3882E-01
      2.462  0.2043E-01  0.6030E-01  0.3578E-01
      2.521  0.1942E-01  0.5487E-01  0.3355E-01
      2.580  0.1873E-01  0.5113E-01  0.3277E-01
      2.638  0.1848E-01  0.4789E-01  0.3245E-01
      2.697  0.1862E-01  0.4297E-01  0.3105E-01
      2.756  0.1909E-01  0.3595E-01  0.2819E-01
      2.814  0.1953E-01  0.2877E-01  0.2505E-01
      2.873  0.1902E-01  0.2379E-01  0.2324E-01
      2.932  0.1702E-01  0.2194E-01  0.2314E-01
      2.990  0.1475E-01  0.2270E-01  0.2392E-01
      3.049  0.1538E-01  0.2535E-01  0.2494E-01
      3.108  0.2195E-01  0.3022E-01  0.2694E-01
      3.166  0.3443E-01  0.3817E-01  0.3122E-01
      3.225  0.4858E-01  0.4869E-01  0.3764E-01
      3.284  0.5848E-01  0.5864E-01  0.4404E-01
      3.342  0.6126E-01  0.6403E-01  0.4817E-01
      3.401  0.5923E-01  0.6339E-01  0.4975E-01
      3.460  0.5685E-01  0.5865E-01  0.5018E-01
      3.519  0.5615E-01  0.5278E-01  0.5045E-01
      3.577  0.5619E-01  0.4751E-01  0.5017E-01
      3.636  0.5734E-01  0.4344E-01  0.4904E-01
      3.695  0.6435E-01  0.4131E-01  0.4881E-01
      3.753  0.8287E-01  0.4238E-01  0.5284E-01
      3.812  0.1114E+00  0.4752E-01  0.6283E-01
      3.871  0.1376E+00  0.5618E-01  0.7588E-01
      3.929  0.1463E+00  0.6629E-01  0.8562E-01
      3.988  0.1326E+00  0.7529E-01  0.8715E-01
      4.047  0.1078E+00  0.8146E-01  0.8135E-01
      4.105  0.9113E-01  0.8476E-01  0.7411E-01
      4.164  0.9525E-01  0.8665E-01  0.7130E-01
      4.223  0.1181E+00  0.8833E-01  0.7422E-01
      4.281  0.1454E+00  0.8860E-01  0.7888E-01
      4.340  0.1598E+00  0.8406E-01  0.7926E-01
      4.399  0.1504E+00  0.7224E-01  0.7156E-01
      4.458  0.1192E+00  0.5452E-01  0.5661E-01
      4.516  0.7865E-01  0.3560E-01  0.3886E-01
      4.575  0.4285E-01  0.2000E-01  0.2311E-01
      4.634  0.1905E-01  0.9613E-02  0.1187E-01
      4.692  0.6521E-02  0.3825E-02  0.5099E-02
      4.751  0.1046E-02  0.1168E-02  0.1563E-02
      4.810 -0.9286E-03  0.3855E-03  0.4931E-04
      4.868 -0.1279E-02  0.5657E-03 -0.3080E-03
      4.927 -0.9365E-03  0.9723E-03 -0.1549E-03
      4.986 -0.4672E-03  0.1107E-02  0.5411E-04
      5.044 -0.1594E-03  0.8583E-03  0.1221E-03
      5.103 -0.4225E-04  0.4349E-03  0.7240E-04
      5.162 -0.2433E-04  0.9267E-04  0.2475E-05
      5.220 -0.2649E-04 -0.6554E-04 -0.3167E-04
      5.279 -0.2179E-04 -0.8615E-04 -0.3148E-04
      5.338 -0.1281E-04 -0.5523E-04 -0.1890E-04
      5.397 -0.5677E-05 -0.2503E-04 -0.8304E-05
      5.455 -0.1973E-05 -0.8739E-05 -0.2842E-05
      5.514 -0.5497E-06 -0.2434E-05 -0.7795E-06
      5.573 -0.1246E-06 -0.5502E-06 -0.1739E-06
      5.631 -0.2317E-07 -0.1020E-06 -0.3189E-07
      5.690 -0.3558E-08 -0.1562E-07 -0.4831E-08
      5.749 -0.4530E-09 -0.1983E-08 -0.6074E-09
      5.807 -0.4797E-10 -0.2094E-09 -0.6356E-10
      5.866 -0.4235E-11 -0.1844E-10 -0.5549E-11
      5.925 -0.3122E-12 -0.1355E-11 -0.4048E-12
      5.983 -0.1924E-13 -0.8334E-13 -0.2471E-13
      6.042 -0.9930E-15 -0.4290E-14 -0.1263E-14
      6.101 -0.4286E-16 -0.1848E-15 -0.5412E-16
      6.159 -0.1582E-17 -0.6843E-17 -0.1997E-17
      6.218  0.0000E+00  0.0000E+00  0.0000E+00
      6.277  0.0000E+00  0.0000E+00  0.0000E+00
      6.336  0.0000E+00  0.0000E+00  0.0000E+00
      6.394  0.0000E+00  0.0000E+00  0.0000E+00
      6.453  0.0000E+00  0.0000E+00  0.0000E+00
      6.512  0.0000E+00  0.0000E+00  0.0000E+00
      6.570  0.0000E+00  0.0000E+00  0.0000E+00
      6.629  0.0000E+00  0.0000E+00  0.0000E+00
      6.688  0.0000E+00  0.0000E+00  0.0000E+00
      6.746  0.0000E+00  0.0000E+00  0.0000E+00
      6.805  0.0000E+00  0.0000E+00  0.0000E+00
      6.864  0.0000E+00  0.0000E+00  0.0000E+00
      6.922  0.0000E+00  0.0000E+00  0.0000E+00
      6.92239854    -10.68391171  301     -1.41235574      1.00000000
    -10.684  0.0000E+00  0.0000E+00  0.0000E+00
    -10.625  0.0000E+00  0.0000E+00  0.0000E+00
    -10.567  0.0000E+00  0.0000E+00  0.0000E+00
    -10.508  0.0000E+00  0.0000E+00  0.0000E+00
    -10.449  0.0000E+00  0.0000E+00  0.0000E+00
    -10.390  0.0000E+00  0.0000E+00  0.0000E+00
    -10.332 -0.8653E-31 -0.7267E-32 -0.1311E-32
    -10.273 -0.9552E-29 -0.8023E-30 -0.1447E-30
    -10.214 -0.8940E-27 -0.7510E-28 -0.1356E-28
    -10.156 -0.7026E-25 -0.5902E-26 -0.1066E-26
    -10.097 -0.4640E-23 -0.3898E-24 -0.7042E-25
    -10.038 -0.2574E-21 -0.2163E-22 -0.3909E-23
     -9.980 -0.1200E-19 -0.1008E-20 -0.1823E-21
     -9.921 -0.4695E-18 -0.3946E-19 -0.7146E-20
     -9.862 -0.1480E-16 -0.1245E-17 -0.2257E-18
     -9.804 -0.4125E-15 -0.3471E-16 -0.6307E-17
     -9.745 -0.9517E-14 -0.8011E-15 -0.1460E-15
     -9.686 -0.1842E-12 -0.1552E-13 -0.2838E-14
     -9.628 -0.2990E-11 -0.2522E-12 -0.4635E-13
     -9.569 -0.4069E-10 -0.3438E-11 -0.6363E-12
     -9.510 -0.4641E-09 -0.3930E-10 -0.7343E-11
     -9.451 -0.4437E-08 -0.3768E-09 -0.7130E-10
     -9.393 -0.3554E-07 -0.3031E-08 -0.5833E-09
     -9.334 -0.2386E-06 -0.2046E-07 -0.4023E-08
     -9.275 -0.1341E-05 -0.1159E-06 -0.2342E-07
     -9.217 -0.6313E-05 -0.5502E-06 -0.1151E-06
     -9.158 -0.2480E-04 -0.2187E-05 -0.4769E-06
     -9.099 -0.8095E-04 -0.7240E-05 -0.1657E-05
     -9.041 -0.2168E-03 -0.1974E-04 -0.4778E-05
     -8.982 -0.4641E-03 -0.4320E-04 -0.1120E-04
     -8.923 -0.7412E-03 -0.7133E-04 -0.2041E-04
     -8.865 -0.6807E-03 -0.7156E-04 -0.2575E-04
     -8.806  0.4458E-03  0.2354E-04 -0.1143E-04
     -8.747  0.3400E-02  0.2875E-03  0.4148E-04
     -8.689  0.8204E-02  0.7290E-03  0.1403E-03
     -8.630  0.1363E-01  0.1248E-02  0.2770E-03
     -8.571  0.1794E-01  0.1708E-02  0.4554E-03
     -8.512  0.2049E-01  0.2079E-02  0.7154E-03
     -8.454  0.2216E-01  0.2450E-02  0.1090E-02
     -8.395  0.2380E-01  0.2845E-02  0.1507E-02
     -8.336  0.2461E-01  0.3094E-02  0.1772E-02
     -8.278  0.2322E-01  0.3007E-02  0.1688E-02
     -8.219  0.1999E-01  0.2661E-02  0.1161E-02
     -8.160  0.1742E-01  0.2425E-02  0.9331E-04
     -8.102  0.1800E-01  0.2663E-02 -0.1783E-02
     -8.043  0.2219E-01  0.3447E-02 -0.4527E-02
     -7.984  0.2848E-01  0.4510E-02 -0.6534E-02
     -7.926  0.3479E-01  0.5414E-02 -0.2576E-02
     -7.867  0.3996E-01  0.5835E-02  0.1637E-01
     -7.808  0.4478E-01  0.5907E-02  0.5940E-01
     -7.750  0.5240E-01  0.6427E-02  0.1303E+00
     -7.691  0.6679E-01  0.8539E-02  0.2274E+00
     -7.632  0.8877E-01  0.1297E-01  0.3518E+00
     -7.573  0.1135E+00  0.1948E-01  0.5147E+00
     -7.515  0.1330E+00  0.2707E-01  0.7322E+00
     -7.456  0.1435E+00  0.3475E-01  0.1008E+01
     -7.397  0.1480E+00  0.4198E-01  0.1325E+01
     -7.339  0.1530E+00  0.4850E-01  0.1648E+01
     -7.280  0.1618E+00  0.5386E-01  0.1938E+01
     -7.221  0.1711E+00  0.5716E-01  0.2157E+01
     -7.163  0.1745E+00  0.5743E-01  0.2270E+01
     -7.104  0.1676E+00  0.5431E-01  0.2257E+01
     -7.045  0.1501E+00  0.4864E-01  0.2128E+01
     -6.987  0.1256E+00  0.4214E-01  0.1935E+01
     -6.928  0.9870E-01  0.3648E-01  0.1748E+01
     -6.869  0.7409E-01  0.3228E-01  0.1633E+01
     -6.811  0.5503E-01  0.2917E-01  0.1618E+01
     -6.752  0.4255E-01  0.2660E-01  0.1679E+01
     -6.693  0.3549E-01  0.2445E-01  0.1763E+01
     -6.634  0.3173E-01  0.2297E-01  0.1830E+01
     -6.576  0.2943E-01  0.2230E-01  0.1880E+01
     -6.517  0.2759E-01  0.2211E-01  0.1938E+01
     -6.458  0.2584E-01  0.2186E-01  0.2013E+01
     -6.400  0.2417E-01  0.2111E-01  0.2088E+01
     -6.341  0.2295E-01  0.1992E-01  0.2140E+01
     -6.282  0.2276E-01  0.1879E-01  0.2184E+01
     -6.224  0.2415E-01  0.1839E-01  0.2266E+01
     -6.165  0.2720E-01  0.1900E-01  0.2426E+01
     -6.106  0.3124E-01  0.2031E-01  0.2654E+01
     -6.048  0.3494E-01  0.2163E-01  0.2901E+01
     -5.989  0.3722E-01  0.2240E-01  0.3106E+01
     -5.930  0.3787E-01  0.2267E-01  0.3233E+01
     -5.872  0.3762E-01  0.2297E-01  0.3275E+01
     -5.813  0.3739E-01  0.2392E-01  0.3252E+01
     -5.754  0.3774E-01  0.2576E-01  0.3204E+01
     -5.695  0.3884E-01  0.2825E-01  0.3177E+01
     -5.637  0.4072E-01  0.3084E-01  0.3194E+01
     -5.578  0.4331E-01  0.3299E-01  0.3245E+01
     -5.519  0.4621E-01  0.3444E-01  0.3297E+01
     -5.461  0.4865E-01  0.3522E-01  0.3324E+01