  64  64   1   0
  0.4452215E+02  0.1108299E-08  0.1108255E-08  0.2678695E-08  0.1000000E-15
  1.000000000000000E-004
  CAR 
 unknown system                          
      6.22781189    -12.16059536  301     -1.12584688      1.00000000
    -12.161  0.0000E+00  0.0000E+00
    -12.099  0.0000E+00  0.0000E+00
    -12.038  0.0000E+00  0.0000E+00
    -11.977  0.0000E+00  0.0000E+00
    -11.915  0.0000E+00  0.0000E+00
    -11.854  0.0000E+00  0.0000E+00
    -11.793 -0.2784E-30 -0.1706E-31
    -11.732 -0.3601E-28 -0.2224E-29
    -11.670 -0.3878E-26 -0.2399E-27
    -11.609 -0.3454E-24 -0.2141E-25
    -11.548 -0.2544E-22 -0.1581E-23
    -11.486 -0.1549E-20 -0.9654E-22
    -11.425 -0.7797E-19 -0.4876E-20
    -11.364 -0.3243E-17 -0.2036E-18
    -11.302 -0.1080E-15 -0.6824E-17
    -11.241 -0.3054E-14 -0.1940E-15
    -11.180 -0.7119E-13 -0.4557E-14
    -11.119 -0.1368E-11 -0.8841E-13
    -11.057 -0.2166E-10 -0.1416E-11
    -10.996 -0.2822E-09 -0.1872E-10
    -10.935 -0.3025E-08 -0.2041E-09
    -10.873 -0.2664E-07 -0.1837E-08
    -10.812 -0.1927E-06 -0.1365E-07
    -10.751 -0.1144E-05 -0.8375E-07
    -10.690 -0.5564E-05 -0.4248E-06
    -10.628 -0.2216E-04 -0.1783E-05
    -10.567 -0.7202E-04 -0.6198E-05
    -10.506 -0.1893E-03 -0.1780E-04
    -10.444 -0.3919E-03 -0.4182E-04
    -10.383 -0.5884E-03 -0.7788E-04
    -10.322 -0.4244E-03 -0.1039E-03
    -10.260  0.7940E-03 -0.5523E-04
    -10.199  0.3790E-02  0.1771E-03
    -10.138  0.8472E-02  0.6964E-03
    -10.077  0.1325E-01  0.1508E-02
    -10.015  0.1587E-01  0.2481E-02
     -9.954  0.1576E-01  0.3448E-02
     -9.893  0.1514E-01  0.4375E-02
     -9.831  0.1681E-01  0.5406E-02
     -9.770  0.2073E-01  0.6676E-02
     -9.709  0.2375E-01  0.8132E-02
     -9.648  0.2278E-01  0.9528E-02
     -9.586  0.1773E-01  0.1061E-01
     -9.525  0.1163E-01  0.1133E-01
     -9.464  0.8579E-02  0.1185E-01
     -9.402  0.1106E-01  0.1253E-01
     -9.341  0.1815E-01  0.1364E-01
     -9.280  0.2597E-01  0.1524E-01
     -9.218  0.3062E-01  0.1711E-01
     -9.157  0.3088E-01  0.1901E-01
     -9.096  0.2816E-01  0.2073E-01
     -9.035  0.2468E-01  0.2225E-01
     -8.973  0.2219E-01  0.2360E-01
     -8.912  0.2170E-01  0.2494E-01
     -8.851  0.2381E-01  0.2639E-01
     -8.789  0.2893E-01  0.2817E-01
     -8.728  0.3710E-01  0.3044E-01
     -8.667  0.4683E-01  0.3331E-01
     -8.606  0.5435E-01  0.3664E-01
     -8.544  0.5547E-01  0.4004E-01
     -8.483  0.4884E-01  0.4304E-01
     -8.422  0.3760E-01  0.4534E-01
     -8.360  0.2751E-01  0.4703E-01
     -8.299  0.2352E-01  0.4847E-01
     -8.238  0.2763E-01  0.5016E-01
     -8.176  0.3886E-01  0.5255E-01
     -8.115  0.5433E-01  0.5588E-01
     -8.054  0.6984E-01  0.6016E-01
     -7.993  0.8060E-01  0.6510E-01
     -7.931  0.8323E-01  0.7020E-01
     -7.870  0.7852E-01  0.7501E-01
     -7.809  0.7263E-01  0.7946E-01
     -7.747  0.7458E-01  0.8403E-01
     -7.686  0.9128E-01  0.8963E-01
     -7.625  0.1229E+00  0.9716E-01
     -7.563  0.1619E+00  0.1071E+00
     -7.502  0.1968E+00  0.1191E+00
     -7.441  0.2197E+00  0.1326E+00
     -7.380  0.2309E+00  0.1468E+00
     -7.318  0.2363E+00  0.1612E+00
     -7.257  0.2402E+00  0.1760E+00
     -7.196  0.2419E+00  0.1908E+00
     -7.134  0.2398E+00  0.2055E+00
     -7.073  0.2383E+00  0.2201E+00
     -7.012  0.2474E+00  0.2353E+00
     -6.951  0.2746E+00  0.2521E+00
     -6.889  0.3195E+00  0.2717E+00
     -6.828  0.3728E+00  0.2945E+00
     -6.767  0.4218E+00  0.3204E+00
     -6.705  0.4551E+00  0.3483E+00
     -6.644  0.4689E+00  0.3770E+00
     -6.583  0.4695E+00  0.4058E+00
     -6.521  0.4667E+00  0.4344E+00
     -6.460  0.4651E+00  0.4629E+00
     -6.399  0.4610E+00  0.4912E+00
     -6.338  0.4488E+00  0.5187E+00
     -6.276  0.4276E+00  0.5449E+00
     -6.215  0.4020E+00  0.5695E+00
     -6.154  0.3772E+00  0.5927E+00
     -6.092  0.3554E+00  0.6144E+00
     -6.031  0.3362E+00  0.6350E+00
     -5.970  0.3228E+00  0.6548E+00
     -5.909  0.3236E+00  0.6747E+00
     -5.847  0.3453E+00  0.6958E+00
     -5.786  0.3809E+00  0.7192E+00
     -5.725  0.4118E+00  0.7444E+00
     -5.663  0.4227E+00  0.7703E+00
     -5.602  0.4133E+00  0.7957E+00
     -5.541  0.3938E+00  0.8198E+00
     -5.479  0.3751E+00  0.8428E+00
     -5.418  0.3653E+00  0.8652E+00
     -5.357  0.3693E+00  0.8878E+00
     -5.296  0.3851E+00  0.9114E+00
     -5.234  0.4024E+00  0.9361E+00
     -5.173  0.4118E+00  0.9613E+00
     -5.112  0.4146E+00  0.9867E+00
     -5.050  0.4214E+00  0.1013E+01
     -4.989  0.4390E+00  0.1039E+01
     -4.928  0.4634E+00  0.1068E+01
     -4.867  0.4852E+00  0.1098E+01
     -4.805  0.5006E+00  0.1128E+01
     -4.744  0.5150E+00  0.1160E+01
     -4.683  0.5346E+00  0.1193E+01
     -4.621  0.5574E+00  0.1227E+01
     -4.560  0.5733E+00  0.1262E+01
     -4.499  0.5742E+00  0.1297E+01
     -4.437  0.5625E+00  0.1332E+01
     -4.376  0.5512E+00  0.1365E+01
     -4.315  0.5560E+00  0.1399E+01
     -4.254  0.5872E+00  0.1435E+01
     -4.192  0.6435E+00  0.1475E+01
     -4.131  0.7094E+00  0.1518E+01
     -4.070  0.7618E+00  0.1565E+01
     -4.008  0.7834E+00  0.1613E+01
     -3.947  0.7745E+00  0.1661E+01
     -3.886  0.7482E+00  0.1706E+01
     -3.825  0.7157E+00  0.1750E+01
     -3.763  0.6767E+00  0.1792E+01
     -3.702  0.6246E+00  0.1830E+01
     -3.641  0.5582E+00  0.1864E+01
     -3.579  0.4862E+00  0.1894E+01
     -3.518  0.4222E+00  0.1920E+01
     -3.457  0.3777E+00  0.1943E+01
     -3.395  0.3599E+00  0.1965E+01
     -3.334  0.3736E+00  0.1988E+01
     -3.273  0.4190E+00  0.2014E+01
     -3.212  0.4862E+00  0.2044E+01
     -3.150  0.5558E+00  0.2078E+01
     -3.089  0.6069E+00  0.2115E+01
     -3.028  0.6253E+00  0.2153E+01
     -2.966  0.6059E+00  0.2190E+01
     -2.905  0.5536E+00  0.2224E+01
     -2.844  0.4862E+00  0.2254E+01
     -2.783  0.4298E+00  0.2280E+01
     -2.721  0.4030E+00  0.2305E+01
     -2.660  0.4050E+00  0.2330E+01
     -2.599  0.4208E+00  0.2356E+01
     -2.537  0.4393E+00  0.2383E+01
     -2.476  0.4610E+00  0.2411E+01
     -2.415  0.4899E+00  0.2441E+01
     -2.353  0.5254E+00  0.2473E+01
     -2.292  0.5660E+00  0.2508E+01
     -2.231  0.6121E+00  0.2545E+01
     -2.170  0.6581E+00  0.2586E+01
     -2.108  0.6854E+00  0.2628E+01
     -2.047  0.6720E+00  0.2669E+01
     -1.986  0.6104E+00  0.2706E+01
     -1.924  0.5196E+00  0.2738E+01
     -1.863  0.4382E+00  0.2765E+01
     -1.802  0.4022E+00  0.2790E+01
     -1.740  0.4235E+00  0.2816E+01
     -1.679  0.4855E+00  0.2845E+01
     -1.618  0.5592E+00  0.2880E+01
     -1.557  0.6183E+00  0.2918E+01
     -1.495  0.6468E+00  0.2957E+01
     -1.434  0.6447E+00  0.2997E+01
     -1.373  0.6313E+00  0.3035E+01
     -1.311  0.6331E+00  0.3074E+01
     -1.250  0.6589E+00  0.3115E+01
     -1.189  0.6874E+00  0.3157E+01
     -1.128  0.6873E+00  0.3199E+01
     -1.066  0.6488E+00  0.3239E+01
     -1.005  0.5904E+00  0.3275E+01
     -0.944  0.5330E+00  0.3307E+01
     -0.882  0.4759E+00  0.3337E+01
     -0.821  0.4032E+00  0.3361E+01
     -0.760  0.3086E+00  0.3380E+01
     -0.698  0.2081E+00  0.3393E+01
     -0.637  0.1291E+00  0.3401E+01
     -0.576  0.8946E-01  0.3406E+01
     -0.515  0.8562E-01  0.3412E+01
     -0.453  0.9595E-01  0.3418E+01
     -0.392  0.9809E-01  0.3424E+01
     -0.331  0.8566E-01  0.3429E+01
     -0.269  0.6968E-01  0.3433E+01
     -0.208  0.6498E-01  0.3437E+01
     -0.147  0.7677E-01  0.3442E+01
     -0.086  0.9928E-01  0.3448E+01
     -0.024  0.1239E+00  0.3455E+01
      0.037  0.1457E+00  0.3464E+01
      0.098  0.1620E+00  0.3474E+01
      0.160  0.1682E+00  0.3485E+01
      0.221  0.1596E+00  0.3494E+01
      0.282  0.1377E+00  0.3503E+01
      0.344  0.1108E+00  0.3510E+01
      0.405  0.8713E-01  0.3515E+01
      0.466  0.6849E-01  0.3519E+01
      0.527  0.5188E-01  0.3522E+01
      0.589  0.3562E-01  0.3525E+01
      0.650  0.2222E-01  0.3526E+01
      0.711  0.1735E-01  0.3527E+01
      0.773  0.2706E-01  0.3529E+01
      0.834  0.5381E-01  0.3532E+01
      0.895  0.9253E-01  0.3538E+01
      0.956  0.1308E+00  0.3546E+01
      1.018  0.1550E+00  0.3555E+01
      1.079  0.1588E+00  0.3565E+01
      1.140  0.1471E+00  0.3574E+01
      1.202  0.1316E+00  0.3582E+01
      1.263  0.1220E+00  0.3589E+01
      1.324  0.1204E+00  0.3597E+01
      1.386  0.1216E+00  0.3604E+01
      1.447  0.1208E+00  0.3612E+01
      1.508  0.1168E+00  0.3619E+01
      1.569  0.1108E+00  0.3626E+01
      1.631  0.1029E+00  0.3632E+01
      1.692  0.9287E-01  0.3638E+01
      1.753  0.8112E-01  0.3643E+01
      1.815  0.6902E-01  0.3647E+01
      1.876  0.5796E-01  0.3650E+01
      1.937  0.5058E-01  0.3653E+01
      1.998  0.5132E-01  0.3657E+01
      2.060  0.6338E-01  0.3660E+01
      2.121  0.8504E-01  0.3666E+01
      2.182  0.1100E+00  0.3672E+01
      2.244  0.1305E+00  0.3680E+01
      2.305  0.1402E+00  0.3689E+01
      2.366  0.1359E+00  0.3697E+01
      2.428  0.1203E+00  0.3705E+01
      2.489  0.1004E+00  0.3711E+01
      2.550  0.8249E-01  0.3716E+01
      2.611  0.6875E-01  0.3720E+01
      2.673  0.5953E-01  0.3724E+01
      2.734  0.5792E-01  0.3727E+01
      2.795  0.6756E-01  0.3731E+01
      2.857  0.8619E-01  0.3737E+01
      2.918  0.1053E+00  0.3743E+01
      2.979  0.1186E+00  0.3751E+01
      3.040  0.1279E+00  0.3758E+01
      3.102  0.1373E+00  0.3767E+01
      3.163  0.1435E+00  0.3776E+01
      3.224  0.1366E+00  0.3784E+01
      3.286  0.1129E+00  0.3791E+01
      3.347  0.8157E-01  0.3796E+01
      3.408  0.5752E-01  0.3799E+01
      3.470  0.4803E-01  0.3802E+01
      3.531  0.4940E-01  0.3805E+01
      3.592  0.5293E-01  0.3809E+01
      3.653  0.5164E-01  0.3812E+01
      3.715  0.4348E-01  0.3814E+01
      3.776  0.3227E-01  0.3816E+01
      3.837  0.2570E-01  0.3818E+01
      3.899  0.2974E-01  0.3820E+01
      3.960  0.4338E-01  0.3822E+01
      4.021  0.5873E-01  0.3826E+01
      4.082  0.6667E-01  0.3830E+01
      4.144  0.6283E-01  0.3834E+01
      4.205  0.4933E-01  0.3837E+01
      4.266  0.3196E-01  0.3839E+01
      4.328  0.1628E-01  0.3840E+01
      4.389  0.5424E-02  0.3840E+01
      4.450 -0.1527E-03  0.3840E+01
      4.512 -0.1834E-02  0.3840E+01
      4.573 -0.1583E-02  0.3840E+01
      4.634 -0.8774E-03  0.3840E+01
      4.695 -0.3637E-03  0.3840E+01
      4.757 -0.1181E-03  0.3840E+01
      4.818 -0.3062E-04  0.3840E+01
      4.879 -0.6410E-05  0.3840E+01
      4.941 -0.1090E-05  0.3840E+01
      5.002 -0.1513E-06  0.3840E+01
      5.063 -0.1718E-07  0.3840E+01
      5.125 -0.1600E-08  0.3840E+01
      5.186 -0.1224E-09  0.3840E+01
      5.247 -0.7705E-11  0.3840E+01
      5.308 -0.3993E-12  0.3840E+01
      5.370 -0.1705E-13  0.3840E+01
      5.431 -0.6023E-15  0.3840E+01
      5.492 -0.1358E-16  0.3840E+01
      5.554  0.0000E+00  0.3840E+01
      5.615  0.0000E+00  0.3840E+01
      5.676  0.0000E+00  0.3840E+01
      5.737  0.0000E+00  0.3840E+01
      5.799  0.0000E+00  0.3840E+01
      5.860  0.0000E+00  0.3840E+01
      5.921  0.0000E+00  0.3840E+01
      5.983  0.0000E+00  0.3840E+01
      6.044  0.0000E+00  0.3840E+01
      6.105  0.0000E+00  0.3840E+01
      6.167  0.0000E+00  0.3840E+01
      6.228  0.0000E+00  0.3840E+01
      6.22781189    -12.16059536  301     -1.12584688      1.00000000
    -12.161  0.0000E+00  0.0000E+00  0.0000E+00
    -12.099  0.0000E+00  0.0000E+00  0.0000E+00
    -12.038  0.0000E+00  0.0000E+00  0.0000E+00
    -11.977  0.0000E+00  0.0000E+00  0.0000E+00
    -11.915  0.0000E+00  0.0000E+00  0.0000E+00
    -11.854  0.0000E+00  0.0000E+00  0.0000E+00
    -11.793 -0.3685E-30 -0.3364E-31 -0.1481E-32
    -11.732 -0.4766E-28 -0.4351E-29 -0.1916E-30
    -11.670 -0.5133E-26 -0.4686E-27 -0.2064E-28
    -11.609 -0.4572E-24 -0.4173E-25 -0.1838E-26
    -11.548 -0.3367E-22 -0.3074E-23 -0.1354E-24
    -11.486 -0.2050E-20 -0.1872E-21 -0.8248E-23
    -11.425 -0.1032E-18 -0.9422E-20 -0.4153E-21
    -11.364 -0.4292E-17 -0.3919E-18 -0.1728E-19
    -11.302 -0.1430E-15 -0.1305E-16 -0.5761E-18
    -11.241 -0.4042E-14 -0.3691E-15 -0.1631E-16
    -11.180 -0.9423E-13 -0.8606E-14 -0.3809E-15
    -11.119 -0.1811E-11 -0.1654E-12 -0.7340E-14
    -11.057 -0.2867E-10 -0.2620E-11 -0.1167E-12
    -10.996 -0.3736E-09 -0.3417E-10 -0.1531E-11
    -10.935 -0.4004E-08 -0.3666E-09 -0.1657E-10
    -10.873 -0.3527E-07 -0.3234E-08 -0.1482E-09
    -10.812 -0.2551E-06 -0.2344E-07 -0.1096E-08
    -10.751 -0.1514E-05 -0.1396E-06 -0.6719E-08
    -10.690 -0.7365E-05 -0.6827E-06 -0.3426E-07
    -10.628 -0.2933E-04 -0.2739E-05 -0.1457E-06
    -10.567 -0.9533E-04 -0.9000E-05 -0.5166E-06
    -10.506 -0.2505E-03 -0.2401E-04 -0.1518E-05
    -10.444 -0.5187E-03 -0.5076E-04 -0.3618E-05
    -10.383 -0.7788E-03 -0.7878E-04 -0.6597E-05
    -10.322 -0.5620E-03 -0.6315E-04 -0.7654E-05
    -10.260  0.1049E-02  0.8791E-04  0.3592E-06
    -10.199  0.5010E-02  0.4734E-03  0.2625E-04
    -10.138  0.1120E-01  0.1085E-02  0.7057E-04
    -10.077  0.1750E-01  0.1716E-02  0.1178E-03
    -10.015  0.2097E-01  0.2077E-02  0.1498E-03
     -9.954  0.2089E-01  0.2117E-02  0.1773E-03
     -9.893  0.2024E-01  0.2173E-02  0.2476E-03
     -9.831  0.2273E-01  0.2623E-02  0.3978E-03
     -9.770  0.2814E-01  0.3395E-02  0.5945E-03
     -9.709  0.3206E-01  0.3951E-02  0.7370E-03
     -9.648  0.3033E-01  0.3794E-02  0.7335E-03
     -9.586  0.2309E-01  0.2944E-02  0.5852E-03
     -9.525  0.1468E-01  0.1958E-02  0.4188E-03
     -9.464  0.1061E-01  0.1584E-02  0.4363E-03
     -9.402  0.1392E-01  0.2259E-02  0.7798E-03
     -9.341  0.2314E-01  0.3757E-02  0.1398E-02
     -9.280  0.3339E-01  0.5310E-02  0.2063E-02
     -9.218  0.4025E-01  0.6202E-02  0.2555E-02
     -9.157  0.4271E-01  0.6238E-02  0.2812E-02
     -9.096  0.4251E-01  0.5671E-02  0.2904E-02
     -9.035  0.4161E-01  0.4844E-02  0.2935E-02
     -8.973  0.4092E-01  0.4066E-02  0.3013E-02
     -8.912  0.4074E-01  0.3671E-02  0.3243E-02
     -8.851  0.4182E-01  0.3991E-02  0.3711E-02
     -8.789  0.4610E-01  0.5221E-02  0.4561E-02
     -8.728  0.5529E-01  0.7285E-02  0.6007E-02
     -8.667  0.6738E-01  0.9703E-02  0.8072E-02
     -8.606  0.7567E-01  0.1160E-01  0.1024E-01
     -8.544  0.7355E-01  0.1207E-01  0.1155E-01
     -8.483  0.6071E-01  0.1079E-01  0.1126E-01
     -8.422  0.4412E-01  0.8410E-02  0.9491E-02
     -8.360  0.3313E-01  0.6304E-02  0.7194E-02
     -8.299  0.3341E-01  0.5767E-02  0.5705E-02
     -8.238  0.4375E-01  0.7268E-02  0.6490E-02
     -8.176  0.5751E-01  0.1030E-01  0.1101E-01
     -8.115  0.6802E-01  0.1381E-01  0.2007E-01
     -8.054  0.7342E-01  0.1668E-01  0.3260E-01
     -7.993  0.7596E-01  0.1798E-01  0.4525E-01
     -7.931  0.7745E-01  0.1720E-01  0.5393E-01
     -7.870  0.7839E-01  0.1490E-01  0.5689E-01
     -7.809  0.8193E-01  0.1276E-01  0.5723E-01
     -7.747  0.9528E-01  0.1290E-01  0.6263E-01
     -7.686  0.1232E+00  0.1649E-01  0.8102E-01
     -7.625  0.1594E+00  0.2282E-01  0.1143E+00
     -7.563  0.1877E+00  0.2961E-01  0.1555E+00
     -7.502  0.1944E+00  0.3441E-01  0.1942E+00
     -7.441  0.1815E+00  0.3622E-01  0.2244E+00
     -7.380  0.1637E+00  0.3603E-01  0.2480E+00
     -7.318  0.1543E+00  0.3559E-01  0.2681E+00
     -7.257  0.1535E+00  0.3560E-01  0.2826E+00
     -7.196  0.1530E+00  0.3527E-01  0.2864E+00
     -7.134  0.1488E+00  0.3390E-01  0.2811E+00
     -7.073  0.1473E+00  0.3251E-01  0.2846E+00
     -7.012  0.1574E+00  0.3336E-01  0.3267E+00
     -6.951  0.1792E+00  0.3772E-01  0.4300E+00
     -6.889  0.2015E+00  0.4458E-01  0.5876E+00
     -6.828  0.2119E+00  0.5157E-01  0.7559E+00
     -6.767  0.2072E+00  0.5658E-01  0.8763E+00
     -6.705  0.1941E+00  0.5882E-01  0.9158E+00
     -6.644  0.1820E+00  0.5888E-01  0.8919E+00
     -6.583  0.1742E+00  0.5810E-01  0.8526E+00
     -6.521  0.1667E+00  0.5738E-01  0.8308E+00
     -6.460  0.1531E+00  0.5641E-01  0.8207E+00
     -6.399  0.1318E+00  0.5425E-01  0.7968E+00
     -6.338  0.1077E+00  0.5068E-01  0.7463E+00
     -6.276  0.8751E-01  0.4657E-01  0.6806E+00
     -6.215  0.7392E-01  0.4310E-01  0.6229E+00
     -6.154  0.6440E-01  0.4059E-01  0.5889E+00
     -6.092  0.5520E-01  0.3839E-01  0.5776E+00
     -6.031  0.4550E-01  0.3575E-01  0.5799E+00
     -5.970  0.3727E-01  0.3309E-01  0.5997E+00
     -5.909  0.3261E-01  0.3203E-01  0.6582E+00
     -5.847  0.3157E-01  0.3374E-01  0.7643E+00
     -5.786  0.3220E-01  0.3728E-01  0.8855E+00
     -5.725  0.3207E-01  0.4010E-01  0.9661E+00
     -5.663  0.3003E-01  0.4052E-01  0.9785E+00
     -5.602  0.2678E-01  0.3908E-01  0.9411E+00
     -5.541  0.2386E-01  0.3747E-01  0.8889E+00
     -5.479  0.2229E-01  0.3678E-01  0.8396E+00
     -5.418  0.2221E-01  0.3701E-01  0.7972E+00
     -5.357  0.2333E-01  0.3743E-01  0.7664E+00
     -5.296  0.2492E-01  0.3688E-01  0.7507E+00
     -5.234  0.2580E-01  0.3428E-01  0.7436E+00
     -5.173  0.2501E-01  0.2962E-01  0.7394E+00
     -5.112  0.2267E-01  0.2441E-01  0.7513E+00
     -5.050  0.1996E-01  0.2072E-01  0.8061E+00
     -4.989  0.1814E-01  0.1962E-01  0.9132E+00
     -4.928  0.1810E-01  0.2076E-01  0.1045E+01
     -4.867  0.2089E-01  0.2334E-01  0.1159E+01
     -4.805  0.2766E-01  0.2720E-01  0.1237E+01
     -4.744  0.3805E-01  0.3269E-01  0.1303E+01
     -4.683  0.4857E-01  0.3943E-01  0.1381E+01
     -4.621  0.5416E-01  0.4549E-01  0.1460E+01
     -4.560  0.5232E-01  0.4864E-01  0.1500E+01
     -4.499  0.4565E-01  0.4859E-01  0.1474E+01
     -4.437  0.3993E-01  0.4761E-01  0.1412E+01
     -4.376  0.3960E-01  0.4848E-01  0.1384E+01
     -4.315  0.4517E-01  0.5205E-01  0.1457E+01
     -4.254  0.5410E-01  0.5719E-01  0.1657E+01
     -4.192  0.6290E-01  0.6260E-01  0.1942E+01
     -4.131  0.6869E-01  0.6775E-01  0.2224E+01
     -4.070  0.6985E-01  0.7214E-01  0.2402E+01
     -4.008  0.6656E-01  0.7491E-01  0.2425E+01
     -3.947  0.6079E-01  0.7565E-01  0.2311E+01
     -3.886  0.5506E-01  0.7491E-01  0.2129E+01
     -3.825  0.5085E-01  0.7369E-01  0.1942E+01
     -3.763  0.4792E-01  0.7277E-01  0.1772E+01
     -3.702  0.4516E-01  0.7271E-01  0.1612E+01
     -3.641  0.4206E-01  0.7382E-01  0.1457E+01
     -3.579  0.3935E-01  0.7552E-01  0.1323E+01
     -3.518  0.3858E-01  0.7685E-01  0.1221E+01
     -3.457  0.4097E-01  0.7795E-01  0.1146E+01
     -3.395  0.4597E-01  0.8020E-01  0.1088E+01
     -3.334  0.5107E-01  0.8435E-01  0.1060E+01
     -3.273  0.5338E-01  0.8927E-01  0.1093E+01
     -3.212  0.5163E-01  0.9273E-01  0.1202E+01
     -3.150  0.4663E-01  0.9257E-01  0.1361E+01
     -3.089  0.4024E-01  0.8755E-01  0.1512E+01
     -3.028  0.3433E-01  0.7807E-01  0.1594E+01
     -2.966  0.3013E-01  0.6626E-01  0.1579E+01
     -2.905  0.2773E-01  0.5497E-01  0.1480E+01
     -2.844  0.2622E-01  0.4649E-01  0.1353E+01
     -2.783  0.2470E-01  0.4186E-01  0.1253E+01
     -2.721  0.2327E-01  0.4106E-01  0.1208E+01
     -2.660  0.2280E-01  0.4364E-01  0.1199E+01
     -2.599  0.2370E-01  0.4940E-01  0.1196E+01
     -2.537  0.2518E-01  0.5783E-01  0.1190E+01
     -2.476  0.2621E-01  0.6643E-01  0.1204E+01
     -2.415  0.2696E-01  0.7100E-01  0.1265E+01
     -2.353  0.2902E-01  0.6925E-01  0.1381E+01
     -2.292  0.3412E-01  0.6374E-01  0.1550E+01
     -2.231  0.4231E-01  0.5996E-01  0.1755E+01
     -2.170  0.5130E-01  0.6121E-01  0.1954E+01
     -2.108  0.5765E-01  0.6587E-01  0.2080E+01
     -2.047  0.5893E-01  0.6896E-01  0.2076E+01
     -1.986  0.5483E-01  0.6602E-01  0.1928E+01
     -1.924  0.4680E-01  0.5622E-01  0.1681E+01
     -1.863  0.3722E-01  0.4340E-01  0.1424E+01
     -1.802  0.2896E-01  0.3406E-01  0.1252E+01
     -1.740  0.2446E-01  0.3292E-01  0.1215E+01
     -1.679  0.2429E-01  0.3942E-01  0.1299E+01
     -1.618  0.2667E-01  0.4822E-01  0.1445E+01
     -1.557  0.2877E-01  0.5365E-01  0.1589E+01
     -1.495  0.2887E-01  0.5364E-01  0.1681E+01
     -1.434  0.2736E-01  0.4998E-01  0.1702E+01
     -1.373  0.2614E-01  0.4572E-01  0.1689E+01
     -1.311  0.2685E-01  0.4263E-01  0.1716E+01
     -1.250  0.2925E-01  0.4051E-01  0.1817E+01
     -1.189  0.3135E-01  0.3819E-01  0.1934E+01
     -1.128  0.3154E-01  0.3530E-01  0.1955E+01
     -1.066  0.3074E-01  0.3303E-01  0.1822E+01
     -1.005  0.3183E-01  0.3306E-01  0.1594E+01
     -0.944  0.3621E-01  0.3585E-01  0.1372E+01
     -0.882  0.4113E-01  0.3984E-01  0.1201E+01
     -0.821  0.4136E-01  0.4224E-01  0.1043E+01
     -0.760  0.3435E-01  0.4046E-01  0.8487E+00
     -0.698  0.2392E-01  0.3413E-01  0.6199E+00
     -0.637  0.1803E-01  0.2632E-01  0.4078E+00
     -0.576  0.2213E-01  0.2210E-01  0.2669E+00
     -0.515  0.3380E-01  0.2407E-01  0.2092E+00
     -0.453  0.4420E-01  0.2944E-01  0.1991E+00
     -0.392  0.4545E-01  0.3259E-01  0.1903E+00
     -0.331  0.3691E-01  0.3069E-01  0.1655E+00
     -0.269  0.2469E-01  0.2635E-01  0.1420E+00
     -0.208  0.1569E-01  0.2465E-01  0.1445E+00
     -0.147  0.1325E-01  0.2860E-01  0.1772E+00
     -0.086  0.1780E-01  0.3775E-01  0.2228E+00
     -0.024  0.2959E-01  0.5018E-01  0.2614E+00
      0.037  0.4827E-01  0.6438E-01  0.2844E+00
      0.098  0.6952E-01  0.7840E-01  0.2923E+00
      0.160  0.8437E-01  0.8855E-01  0.2842E+00
      0.221  0.8481E-01  0.9082E-01  0.2568E+00
      0.282  0.7042E-01  0.8438E-01  0.2145E+00
      0.344  0.4863E-01  0.7258E-01  0.1709E+00
      0.405  0.2854E-01  0.5969E-01  0.1378E+00
      0.466  0.1511E-01  0.4741E-01  0.1147E+00
      0.527  0.8172E-02  0.3521E-01  0.9318E-01
      0.589  0.4961E-02  0.2300E-01  0.6833E-01
      0.650  0.3059E-02  0.1272E-01  0.4457E-01
      0.711  0.2300E-02  0.7965E-02  0.3307E-01
      0.773  0.4871E-02  0.1282E-01  0.4466E-01
      0.834  0.1324E-01  0.2969E-01  0.8198E-01
      0.895  0.2720E-01  0.5624E-01  0.1348E+00
      0.956  0.4308E-01  0.8425E-01  0.1839E+00
      1.018  0.5606E-01  0.1034E+00  0.2123E+00
      1.079  0.6326E-01  0.1081E+00  0.2151E+00
      1.140  0.6438E-01  0.1020E+00  0.2001E+00
      1.202  0.6077E-01  0.9437E-01  0.1805E+00
      1.263  0.5497E-01  0.9328E-01  0.1663E+00
      1.324  0.5024E-01  0.9890E-01  0.1601E+00
      1.386  0.4882E-01  0.1043E+00  0.1601E+00
      1.447  0.5012E-01  0.1019E+00  0.1642E+00
      1.508  0.5108E-01  0.8993E-01  0.1705E+00
      1.569  0.4838E-01  0.7363E-01  0.1737E+00
      1.631  0.4094E-01  0.6073E-01  0.1666E+00
      1.692  0.3064E-01  0.5630E-01  0.1458E+00
      1.753  0.2073E-01  0.5947E-01  0.1166E+00
      1.815  0.1336E-01  0.6394E-01  0.8799E-01
      1.876  0.8530E-02  0.6302E-01  0.6592E-01
      1.937  0.5537E-02  0.5596E-01  0.5271E-01
      1.998  0.5186E-02  0.4859E-01  0.5059E-01
      2.060  0.9824E-02  0.4723E-01  0.6196E-01
      2.121  0.2081E-01  0.5348E-01  0.8565E-01
      2.182  0.3591E-01  0.6513E-01  0.1152E+00
      2.244  0.4940E-01  0.7875E-01  0.1410E+00
      2.305  0.5542E-01  0.8990E-01  0.1540E+00
      2.366  0.5232E-01  0.9379E-01  0.1499E+00
      2.428  0.4436E-01  0.8850E-01  0.1321E+00
      2.489  0.3837E-01  0.7687E-01  0.1100E+00
      2.550  0.3757E-01  0.6366E-01  0.9184E-01
      2.611  0.3906E-01  0.5219E-01  0.8004E-01
      2.673  0.3814E-01  0.4531E-01  0.7379E-01
      2.734  0.3421E-01  0.4734E-01  0.7490E-01
      2.795  0.3085E-01  0.6092E-01  0.8617E-01
      2.857  0.3085E-01  0.8160E-01  0.1047E+00
      2.918  0.3339E-01  0.9943E-01  0.1215E+00
      2.979  0.3618E-01  0.1081E+00  0.1293E+00
      3.040  0.3868E-01  0.1102E+00  0.1293E+00
      3.102  0.4178E-01  0.1109E+00  0.1269E+00
      3.163  0.4503E-01  0.1091E+00  0.1228E+00
      3.224  0.4602E-01  0.9775E-01  0.1116E+00
      3.286  0.4310E-01  0.7447E-01  0.9027E-01
      3.347  0.3749E-01  0.4687E-01  0.6439E-01
      3.408  0.3159E-01  0.2691E-01  0.4444E-01
      3.470  0.2612E-01  0.2129E-01  0.3648E-01
      3.531  0.2024E-01  0.2797E-01  0.3854E-01
      3.592  0.1378E-01  0.3924E-01  0.4396E-01
      3.653  0.7919E-02  0.4648E-01  0.4608E-01
      3.715  0.3824E-02  0.4480E-01  0.4135E-01
      3.776  0.1735E-02  0.3631E-01  0.3132E-01
      3.837  0.1474E-02  0.2853E-01  0.2188E-01
      3.899  0.3028E-02  0.2775E-01  0.1876E-01
      3.960  0.6192E-02  0.3313E-01  0.2257E-01
      4.021  0.9950E-02  0.3788E-01  0.2841E-01
      4.082  0.1263E-01  0.3588E-01  0.3023E-01
      4.144  0.1292E-01  0.2679E-01  0.2559E-01
      4.205  0.1074E-01  0.1519E-01  0.1677E-01
      4.266  0.7204E-02  0.5966E-02  0.8055E-02
      4.328  0.3724E-02  0.9517E-03  0.2267E-02
      4.389  0.1244E-02 -0.7782E-03 -0.3276E-03
      4.450 -0.2715E-04 -0.9213E-03 -0.9139E-03
      4.512 -0.4028E-03 -0.6189E-03 -0.7095E-03
      4.573 -0.3446E-03 -0.3271E-03 -0.3880E-03
      4.634 -0.1892E-03 -0.1445E-03 -0.1687E-03
      4.695 -0.7783E-04 -0.5347E-04 -0.6026E-04
      4.757 -0.2512E-04 -0.1643E-04 -0.1780E-04
      4.818 -0.6489E-05 -0.4154E-05 -0.4344E-05
      4.879 -0.1355E-05 -0.8609E-06 -0.8743E-06
      4.941 -0.2300E-06 -0.1460E-06 -0.1449E-06
      5.002 -0.3189E-07 -0.2028E-07 -0.1977E-07
      5.063 -0.3620E-08 -0.2307E-08 -0.2218E-08
      5.125 -0.3371E-09 -0.2154E-09 -0.2049E-09
      5.186 -0.2579E-10 -0.1652E-10 -0.1558E-10
      5.247 -0.1624E-11 -0.1042E-11 -0.9757E-12
      5.308 -0.8419E-13 -0.5409E-13 -0.5038E-13
      5.370 -0.3597E-14 -0.2312E-14 -0.2144E-14
      5.431 -0.1272E-15 -0.8209E-16 -0.7534E-16
      5.492 -0.2820E-17 -0.1827E-17 -0.1751E-17
      5.554  0.0000E+00  0.0000E+00  0.0000E+00
      5.615  0.0000E+00  0.0000E+00  0.0000E+00
      5.676  0.0000E+00  0.0000E+00  0.0000E+00
      5.737  0.0000E+00  0.0000E+00  0.0000E+00
      5.799  0.0000E+00  0.0000E+00  0.0000E+00
      5.860  0.0000E+00  0.0000E+00  0.0000E+00
      5.921  0.0000E+00  0.0000E+00  0.0000E+00
      5.983  0.0000E+00  0.0000E+00  0.0000E+00
      6.044  0.0000E+00  0.0000E+00  0.0000E+00
      6.105  0.0000E+00  0.0000E+00  0.0000E+00
      6.167  0.0000E+00  0.0000E+00  0.0000E+00
      6.228  0.0000E+00  0.0000E+00  0.0000E+00
      6.22781189    -12.16059536  301     -1.12584688      1.00000000
    -12.161  0.0000E+00  0.0000E+00  0.0000E+00
    -12.099  0.0000E+00  0.0000E+00  0.0000E+00
    -12.038  0.0000E+00  0.0000E+00  0.0000E+00
    -11.977  0.0000E+00  0.0000E+00  0.0000E+00
    -11.915  0.0000E+00  0.0000E+00  0.0000E+00
    -11.854  0.0000E+00  0.0000E+00  0.0000E+00
    -11.793 -0.3535E-30 -0.3255E-31 -0.9540E-33
    -11.732 -0.4572E-28 -0.4210E-29 -0.1234E-30
    -11.670 -0.4924E-26 -0.4534E-27 -0.1329E-28
    -11.609 -0.4386E-24 -0.4038E-25 -0.1184E-26
    -11.548 -0.3231E-22 -0.2975E-23 -0.8723E-25
    -11.486 -0.1967E-20 -0.1811E-21 -0.5313E-23
    -11.425 -0.9902E-19 -0.9118E-20 -0.2676E-21
    -11.364 -0.4118E-17 -0.3792E-18 -0.1114E-19
    -11.302 -0.1372E-15 -0.1263E-16 -0.3713E-18
    -11.241 -0.3878E-14 -0.3572E-15 -0.1052E-16
    -11.180 -0.9040E-13 -0.8328E-14 -0.2457E-15
    -11.119 -0.1737E-11 -0.1601E-12 -0.4740E-14
    -11.057 -0.2750E-10 -0.2535E-11 -0.7546E-13
    -10.996 -0.3584E-09 -0.3306E-10 -0.9919E-12
    -10.935 -0.3841E-08 -0.3547E-09 -0.1077E-10
    -10.873 -0.3383E-07 -0.3129E-08 -0.9674E-10
    -10.812 -0.2447E-06 -0.2268E-07 -0.7203E-09
    -10.751 -0.1452E-05 -0.1350E-06 -0.4459E-08
    -10.690 -0.7064E-05 -0.6601E-06 -0.2304E-07
    -10.628 -0.2813E-04 -0.2648E-05 -0.9963E-07
    -10.567 -0.9142E-04 -0.8695E-05 -0.3608E-06
    -10.506 -0.2402E-03 -0.2318E-04 -0.1086E-05
    -10.444 -0.4971E-03 -0.4897E-04 -0.2655E-05
    -10.383 -0.7460E-03 -0.7588E-04 -0.4985E-05
    -10.322 -0.5372E-03 -0.6053E-04 -0.6075E-05
    -10.260  0.1009E-02  0.8560E-04 -0.5604E-06
    -10.199  0.4808E-02  0.4580E-03  0.1837E-04
    -10.138  0.1074E-01  0.1049E-02  0.5144E-04
    -10.077  0.1679E-01  0.1658E-02  0.8716E-04
    -10.015  0.2012E-01  0.2005E-02  0.1117E-03
     -9.954  0.1999E-01  0.2037E-02  0.1329E-03
     -9.893  0.1925E-01  0.2071E-02  0.1866E-03
     -9.831  0.2144E-01  0.2472E-02  0.3026E-03
     -9.770  0.2643E-01  0.3184E-02  0.4610E-03
     -9.709  0.3014E-01  0.3714E-02  0.5911E-03
     -9.648  0.2870E-01  0.3597E-02  0.6177E-03
     -9.586  0.2227E-01  0.2840E-02  0.5195E-03
     -9.525  0.1506E-01  0.1961E-02  0.3720E-03
     -9.464  0.1230E-01  0.1668E-02  0.3449E-03
     -9.402  0.1636E-01  0.2368E-02  0.6140E-03
     -9.341  0.2479E-01  0.3810E-02  0.1215E-02
     -9.280  0.3240E-01  0.5236E-02  0.1977E-02
     -9.218  0.3604E-01  0.5989E-02  0.2632E-02
     -9.157  0.3673E-01  0.5956E-02  0.3003E-02
     -9.096  0.3690E-01  0.5394E-02  0.3097E-02
     -9.035  0.3715E-01  0.4571E-02  0.3062E-02
     -8.973  0.3675E-01  0.3738E-02  0.3096E-02
     -8.912  0.3574E-01  0.3257E-02  0.3382E-02
     -8.851  0.3549E-01  0.3519E-02  0.4077E-02
     -8.789  0.3824E-01  0.4724E-02  0.5302E-02
     -8.728  0.4621E-01  0.6769E-02  0.7045E-02
     -8.667  0.5904E-01  0.9201E-02  0.8952E-02
     -8.606  0.7151E-01  0.1118E-01  0.1032E-01
     -8.544  0.7575E-01  0.1175E-01  0.1047E-01
     -8.483  0.6770E-01  0.1043E-01  0.9256E-02
     -8.422  0.5133E-01  0.7801E-02  0.7225E-02
     -8.360  0.3615E-01  0.5334E-02  0.5368E-02
     -8.299  0.3068E-01  0.4515E-02  0.4673E-02
     -8.238  0.3760E-01  0.5915E-02  0.5986E-02
     -8.176  0.5396E-01  0.9005E-02  0.1016E-01
     -8.115  0.7457E-01  0.1265E-01  0.1789E-01
     -8.054  0.9448E-01  0.1570E-01  0.2885E-01
     -7.993  0.1087E+00  0.1727E-01  0.4087E-01
     -7.931  0.1124E+00  0.1698E-01  0.5051E-01
     -7.870  0.1049E+00  0.1529E-01  0.5549E-01
     -7.809  0.9345E-01  0.1367E-01  0.5769E-01
     -7.747  0.8987E-01  0.1395E-01  0.6394E-01
     -7.686  0.1008E+00  0.1709E-01  0.8209E-01
     -7.625  0.1216E+00  0.2219E-01  0.1137E+00
     -7.563  0.1408E+00  0.2691E-01  0.1505E+00
     -7.502  0.1502E+00  0.2937E-01  0.1807E+00
     -7.441  0.1523E+00  0.2959E-01  0.1995E+00
     -7.380  0.1579E+00  0.2935E-01  0.2127E+00
     -7.318  0.1764E+00  0.3044E-01  0.2285E+00
     -7.257  0.2052E+00  0.3314E-01  0.2480E+00
     -7.196  0.2276E+00  0.3610E-01  0.2655E+00
     -7.134  0.2252E+00  0.3783E-01  0.2801E+00
     -7.073  0.1963E+00  0.3850E-01  0.3036E+00
     -7.012  0.1595E+00  0.4005E-01  0.3555E+00
     -6.951  0.1398E+00  0.4431E-01  0.4489E+00
     -6.889  0.1494E+00  0.5118E-01  0.5775E+00
     -6.828  0.1797E+00  0.5860E-01  0.7133E+00
     -6.767  0.2092E+00  0.6404E-01  0.8166E+00
     -6.705  0.2183E+00  0.6597E-01  0.8595E+00