  96  96   1   0
  0.3729053E+02  0.1145378E-08  0.1143027E-08  0.3167853E-08  0.0000000E+00
  1.000000000000000E-004
  CAR 
 unknown system                          
     14.66994196     -9.73077546  301     -0.59251039      1.00000000
     -9.731  0.0000E+00  0.0000E+00
     -9.649  0.0000E+00  0.0000E+00
     -9.568  0.0000E+00  0.0000E+00
     -9.487 -0.1176E-31 -0.9564E-33
     -9.405 -0.7112E-26 -0.5784E-27
     -9.324 -0.1133E-20 -0.9217E-22
     -9.243 -0.4744E-16 -0.3858E-17
     -9.161 -0.5022E-12 -0.4085E-13
     -9.080 -0.1413E-08 -0.1150E-09
     -8.999 -0.1016E-05 -0.8274E-07
     -8.917 -0.1816E-03 -0.1486E-04
     -8.836 -0.7618E-02 -0.6345E-03
     -8.755 -0.6326E-01 -0.5779E-02
     -8.673  0.2421E-01 -0.3811E-02
     -8.592  0.1415E+01  0.1113E+00
     -8.511  0.5180E+01  0.5326E+00
     -8.429  0.4053E+01  0.8622E+00
     -8.348  0.5258E+01  0.1290E+01
     -8.267  0.7509E+01  0.1901E+01
     -8.185  0.1190E+01  0.1998E+01
     -8.104  0.3836E+01  0.2309E+01
     -8.023  0.1291E+02  0.3359E+01
     -7.941  0.8013E+01  0.4011E+01
     -7.860 -0.1588E+00  0.3998E+01
     -7.779  0.3888E+01  0.4314E+01
     -7.697  0.8360E+01  0.4994E+01
     -7.616  0.9410E+01  0.5760E+01
     -7.535  0.1064E+02  0.6625E+01
     -7.453  0.5215E+01  0.7049E+01
     -7.372  0.1049E+02  0.7902E+01
     -7.291  0.1863E+02  0.9417E+01
     -7.209  0.1827E+02  0.1090E+02
     -7.128  0.1199E+02  0.1188E+02
     -7.047  0.1358E+02  0.1298E+02
     -6.965  0.1954E+02  0.1457E+02
     -6.884  0.2765E+02  0.1682E+02
     -6.803  0.4929E+02  0.2083E+02
     -6.721  0.7313E+02  0.2678E+02
     -6.640  0.9638E+02  0.3462E+02
     -6.559  0.1296E+03  0.4516E+02
     -6.477  0.1604E+03  0.5821E+02
     -6.396  0.1714E+03  0.7215E+02
     -6.315  0.1746E+03  0.8635E+02
     -6.233  0.1832E+03  0.1012E+03
     -6.152  0.2005E+03  0.1176E+03
     -6.071  0.2177E+03  0.1353E+03
     -5.989  0.2215E+03  0.1533E+03
     -5.908  0.2228E+03  0.1714E+03
     -5.827  0.2053E+03  0.1881E+03
     -5.745  0.1895E+03  0.2035E+03
     -5.664  0.1949E+03  0.2194E+03
     -5.583  0.2052E+03  0.2361E+03
     -5.501  0.2068E+03  0.2529E+03
     -5.420  0.2118E+03  0.2701E+03
     -5.339  0.2143E+03  0.2875E+03
     -5.257  0.2095E+03  0.3046E+03
     -5.176  0.2201E+03  0.3225E+03
     -5.095  0.2354E+03  0.3416E+03
     -5.013  0.2517E+03  0.3621E+03
     -4.932  0.2633E+03  0.3835E+03
     -4.851  0.2644E+03  0.4050E+03
     -4.769  0.2558E+03  0.4258E+03
     -4.688  0.2491E+03  0.4461E+03
     -4.607  0.2479E+03  0.4662E+03
     -4.525  0.2453E+03  0.4862E+03
     -4.444  0.2499E+03  0.5065E+03
     -4.363  0.2563E+03  0.5274E+03
     -4.281  0.2537E+03  0.5480E+03
     -4.200  0.2469E+03  0.5681E+03
     -4.119  0.2465E+03  0.5881E+03
     -4.037  0.2502E+03  0.6085E+03
     -3.956  0.2454E+03  0.6284E+03
     -3.875  0.2341E+03  0.6475E+03
     -3.793  0.2184E+03  0.6653E+03
     -3.712  0.1998E+03  0.6815E+03
     -3.631  0.1842E+03  0.6965E+03
     -3.549  0.1736E+03  0.7106E+03
     -3.468  0.1463E+03  0.7225E+03
     -3.387  0.1066E+03  0.7312E+03
     -3.305  0.9798E+02  0.7391E+03
     -3.224  0.1063E+03  0.7478E+03
     -3.143  0.1049E+03  0.7563E+03
     -3.061  0.9608E+02  0.7641E+03
     -2.980  0.9582E+02  0.7719E+03
     -2.899  0.9631E+02  0.7798E+03
     -2.817  0.9687E+02  0.7876E+03
     -2.736  0.9655E+02  0.7955E+03
     -2.655  0.9979E+02  0.8036E+03
     -2.573  0.1048E+03  0.8121E+03
     -2.492  0.1005E+03  0.8203E+03
     -2.411  0.9239E+02  0.8278E+03
     -2.329  0.9043E+02  0.8352E+03
     -2.248  0.9085E+02  0.8426E+03
     -2.167  0.9266E+02  0.8501E+03
     -2.085  0.9463E+02  0.8578E+03
     -2.004  0.9278E+02  0.8653E+03
     -1.923  0.8630E+02  0.8724E+03
     -1.841  0.8763E+02  0.8795E+03
     -1.760  0.8599E+02  0.8865E+03
     -1.679  0.8913E+02  0.8937E+03
     -1.597  0.9018E+02  0.9011E+03
     -1.516  0.8728E+02  0.9082E+03
     -1.435  0.8879E+02  0.9154E+03
     -1.353  0.8998E+02  0.9227E+03
     -1.272  0.8828E+02  0.9299E+03
     -1.191  0.8852E+02  0.9371E+03
     -1.109  0.9395E+02  0.9447E+03
     -1.028  0.1067E+03  0.9534E+03
     -0.947  0.1037E+03  0.9618E+03
     -0.865  0.9075E+02  0.9692E+03
     -0.784  0.9544E+02  0.9770E+03
     -0.703  0.1000E+03  0.9851E+03
     -0.621  0.1001E+03  0.9933E+03
     -0.540  0.9155E+02  0.1001E+04
     -0.459  0.7665E+02  0.1007E+04
     -0.377  0.6524E+02  0.1012E+04
     -0.296  0.6623E+02  0.1018E+04
     -0.214  0.6143E+02  0.1023E+04
     -0.133  0.5004E+02  0.1027E+04
     -0.052  0.5445E+02  0.1031E+04
      0.030  0.6004E+02  0.1036E+04
      0.111  0.5236E+02  0.1040E+04
      0.192  0.4713E+02  0.1044E+04
      0.274  0.4335E+02  0.1048E+04
      0.355  0.3820E+02  0.1051E+04
      0.436  0.2653E+02  0.1053E+04
      0.518  0.2067E+02  0.1055E+04
      0.599  0.2726E+02  0.1057E+04
      0.680  0.3189E+02  0.1059E+04
      0.762  0.3572E+02  0.1062E+04
      0.843  0.3448E+02  0.1065E+04
      0.924  0.3612E+02  0.1068E+04
      1.006  0.3794E+02  0.1071E+04
      1.087  0.3710E+02  0.1074E+04
      1.168  0.2709E+02  0.1076E+04
      1.250  0.2281E+02  0.1078E+04
      1.331  0.2682E+02  0.1080E+04
      1.412  0.2655E+02  0.1083E+04
      1.494  0.2935E+02  0.1085E+04
      1.575  0.2835E+02  0.1087E+04
      1.656  0.3109E+02  0.1090E+04
      1.738  0.3639E+02  0.1093E+04
      1.819  0.3319E+02  0.1095E+04
      1.900  0.2883E+02  0.1098E+04
      1.982  0.3086E+02  0.1100E+04
      2.063  0.2964E+02  0.1103E+04
      2.144  0.2787E+02  0.1105E+04
      2.226  0.3161E+02  0.1108E+04
      2.307  0.3463E+02  0.1110E+04
      2.388  0.3630E+02  0.1113E+04
      2.470  0.2847E+02  0.1116E+04
      2.551  0.2349E+02  0.1118E+04
      2.632  0.2426E+02  0.1119E+04
      2.714  0.2656E+02  0.1122E+04
      2.795  0.3020E+02  0.1124E+04
      2.876  0.3005E+02  0.1127E+04
      2.958  0.2584E+02  0.1129E+04
      3.039  0.1907E+02  0.1130E+04
      3.120  0.2041E+02  0.1132E+04
      3.202  0.2706E+02  0.1134E+04
      3.283  0.2588E+02  0.1136E+04
      3.364  0.2185E+02  0.1138E+04
      3.446  0.2009E+02  0.1140E+04
      3.527  0.2481E+02  0.1142E+04
      3.608  0.2335E+02  0.1143E+04
      3.690  0.2405E+02  0.1145E+04
      3.771  0.3409E+02  0.1148E+04
      3.852  0.2773E+02  0.1150E+04
      3.934  0.2490E+02  0.1153E+04
      4.015  0.2472E+02  0.1155E+04
      4.096  0.1743E+02  0.1156E+04
      4.178  0.1961E+02  0.1158E+04
      4.259  0.3001E+02  0.1160E+04
      4.340  0.3664E+02  0.1163E+04
      4.422  0.3741E+02  0.1166E+04
      4.503  0.3734E+02  0.1169E+04
      4.584  0.3968E+02  0.1172E+04
      4.666  0.4986E+02  0.1176E+04
      4.747  0.5416E+02  0.1181E+04
      4.828  0.4845E+02  0.1185E+04
      4.910  0.5029E+02  0.1189E+04
      4.991  0.4854E+02  0.1193E+04
      5.072  0.4587E+02  0.1196E+04
      5.154  0.4801E+02  0.1200E+04
      5.235  0.5606E+02  0.1205E+04
      5.316  0.6194E+02  0.1210E+04
      5.398  0.5360E+02  0.1214E+04
      5.479  0.4441E+02  0.1218E+04
      5.560  0.5048E+02  0.1222E+04
      5.642  0.5030E+02  0.1226E+04
      5.723  0.4051E+02  0.1229E+04
      5.804  0.4569E+02  0.1233E+04
      5.886  0.5959E+02  0.1238E+04
      5.967  0.5791E+02  0.1243E+04
      6.048  0.5676E+02  0.1247E+04
      6.130  0.5321E+02  0.1252E+04
      6.211  0.4967E+02  0.1256E+04
      6.292  0.4851E+02  0.1260E+04
      6.374  0.4601E+02  0.1263E+04
      6.455  0.5521E+02  0.1268E+04
      6.536  0.5450E+02  0.1272E+04
      6.618  0.5676E+02  0.1277E+04
      6.699  0.6812E+02  0.1282E+04
      6.780  0.6166E+02  0.1287E+04
      6.862  0.4907E+02  0.1291E+04
      6.943  0.4623E+02  0.1295E+04
      7.024  0.5924E+02  0.1300E+04
      7.106  0.5895E+02  0.1305E+04
      7.187  0.5455E+02  0.1309E+04
      7.268  0.5625E+02  0.1314E+04
      7.350  0.5430E+02  0.1318E+04
      7.431  0.5897E+02  0.1323E+04
      7.512  0.6423E+02  0.1328E+04
      7.594  0.5724E+02  0.1333E+04
      7.675  0.5667E+02  0.1338E+04
      7.756  0.5828E+02  0.1342E+04
      7.838  0.5657E+02  0.1347E+04
      7.919  0.6053E+02  0.1352E+04
      8.000  0.6076E+02  0.1357E+04
      8.082  0.5591E+02  0.1361E+04
      8.163  0.7072E+02  0.1367E+04
      8.244  0.8763E+02  0.1374E+04
      8.326  0.8180E+02  0.1381E+04
      8.407  0.6910E+02  0.1386E+04
      8.488  0.6411E+02  0.1392E+04
      8.570  0.6966E+02  0.1397E+04
      8.651  0.6924E+02  0.1403E+04
      8.732  0.6762E+02  0.1408E+04
      8.814  0.7249E+02  0.1414E+04
      8.895  0.6924E+02  0.1420E+04
      8.976  0.6873E+02  0.1426E+04
      9.058  0.6707E+02  0.1431E+04
      9.139  0.7424E+02  0.1437E+04
      9.220  0.7420E+02  0.1443E+04
      9.302  0.6791E+02  0.1449E+04
      9.383  0.7368E+02  0.1455E+04
      9.464  0.7575E+02  0.1461E+04
      9.546  0.8117E+02  0.1467E+04
      9.627  0.8788E+02  0.1475E+04
      9.708  0.8269E+02  0.1481E+04
      9.790  0.6726E+02  0.1487E+04
      9.871  0.5402E+02  0.1491E+04
      9.952  0.5683E+02  0.1496E+04
     10.034  0.6919E+02  0.1501E+04
     10.115  0.8066E+02  0.1508E+04
     10.196  0.8721E+02  0.1515E+04
     10.278  0.8743E+02  0.1522E+04
     10.359  0.8429E+02  0.1529E+04
     10.440  0.8348E+02  0.1536E+04
     10.522  0.9197E+02  0.1543E+04
     10.603  0.9232E+02  0.1551E+04
     10.684  0.8586E+02  0.1558E+04
     10.766  0.8581E+02  0.1565E+04
     10.847  0.8928E+02  0.1572E+04
     10.928  0.8508E+02  0.1579E+04
     11.010  0.7880E+02  0.1585E+04
     11.091  0.8092E+02  0.1592E+04
     11.173  0.8386E+02  0.1599E+04
     11.254  0.8334E+02  0.1605E+04
     11.335  0.8451E+02  0.1612E+04
     11.417  0.8188E+02  0.1619E+04
     11.498  0.7915E+02  0.1625E+04
     11.579  0.8275E+02  0.1632E+04
     11.661  0.8954E+02  0.1639E+04
     11.742  0.9256E+02  0.1647E+04
     11.823  0.8597E+02  0.1654E+04
     11.905  0.8621E+02  0.1661E+04
     11.986  0.9184E+02  0.1668E+04
     12.067  0.8907E+02  0.1676E+04
     12.149  0.8582E+02  0.1683E+04
     12.230  0.8580E+02  0.1690E+04
     12.311  0.9108E+02  0.1697E+04
     12.393  0.9171E+02  0.1705E+04
     12.474  0.9039E+02  0.1712E+04
     12.555  0.8457E+02  0.1719E+04
     12.637  0.8578E+02  0.1726E+04
     12.718  0.8366E+02  0.1733E+04
     12.799  0.8421E+02  0.1739E+04
     12.881  0.9304E+02  0.1747E+04
     12.962  0.9366E+02  0.1755E+04
     13.043  0.8785E+02  0.1762E+04
     13.125  0.8049E+02  0.1768E+04
     13.206  0.6337E+02  0.1773E+04
     13.287  0.4125E+02  0.1777E+04
     13.369  0.2559E+02  0.1779E+04
     13.450  0.1150E+02  0.1780E+04
     13.531  0.1753E+01  0.1780E+04
     13.613  0.4894E+00  0.1780E+04
     13.694  0.1532E+00  0.1780E+04
     13.775 -0.4813E-01  0.1780E+04
     13.857 -0.7356E-02  0.1780E+04
     13.938 -0.1806E-03  0.1780E+04
     14.019 -0.1015E-05  0.1780E+04
     14.101 -0.1413E-08  0.1780E+04
     14.182 -0.5023E-12  0.1780E+04
     14.263  0.0000E+00  0.1780E+04
     14.345  0.0000E+00  0.1780E+04
     14.426  0.0000E+00  0.1780E+04
     14.507  0.0000E+00  0.1780E+04
     14.589  0.0000E+00  0.1780E+04
     14.670  0.0000E+00  0.1780E+04
     14.66994196     -9.73077546  301     -0.59251039      1.00000000
     -9.731  0.0000E+00  0.0000E+00  0.0000E+00
     -9.649  0.0000E+00  0.0000E+00  0.0000E+00
     -9.568  0.0000E+00  0.0000E+00  0.0000E+00
     -9.487 -0.5457E-35 -0.6335E-36 -0.1706E-37
     -9.405 -0.3300E-29 -0.3831E-30 -0.1032E-31
     -9.324 -0.5258E-24 -0.6105E-25 -0.1644E-26
     -9.243 -0.2201E-19 -0.2556E-20 -0.6881E-22
     -9.161 -0.2330E-15 -0.2706E-16 -0.7285E-18
     -9.080 -0.6557E-12 -0.7613E-13 -0.2052E-14
     -8.999 -0.4713E-09 -0.5473E-10 -0.1481E-11
     -8.917 -0.8423E-07 -0.9786E-08 -0.2713E-09
     -8.836 -0.3519E-05 -0.4104E-06 -0.1311E-07
     -8.755 -0.2834E-04 -0.3405E-05 -0.2190E-06
     -8.673  0.2294E-04  0.1343E-05 -0.1428E-05
     -8.592  0.6330E-03  0.7631E-04  0.5153E-05
     -8.511  0.2175E-02  0.2808E-03  0.3853E-04
     -8.429  0.1670E-02  0.2193E-03  0.3374E-04
     -8.348  0.1315E-02  0.2105E-03  0.8196E-04
     -8.267  0.1650E-02  0.2718E-03  0.1090E-03
     -8.185 -0.9870E-05  0.1553E-04  0.6253E-05
     -8.104  0.3850E-02  0.5173E-03  0.3086E-03
     -8.023  0.1275E-01  0.1653E-02  0.9640E-03
     -7.941  0.7338E-02  0.9731E-03  0.6042E-03
     -7.860 -0.5035E-03 -0.5469E-04 -0.1946E-04
     -7.779  0.6631E-02  0.9895E-03  0.7072E-03
     -7.697  0.1464E-01  0.2043E-02  0.1376E-02
     -7.616  0.1455E-01  0.1799E-02  0.1330E-02
     -7.535  0.1463E-01  0.1972E-02  0.1470E-02
     -7.453  0.7646E-02  0.1012E-02  0.8591E-03
     -7.372  0.1216E-01  0.2016E-02  0.2905E-02
     -7.291  0.1622E-01  0.3445E-02  0.5720E-02
     -7.209  0.9878E-02  0.2729E-02  0.6337E-02
     -7.128  0.3784E-02  0.1387E-02  0.4916E-02
     -7.047  0.1804E-01  0.2362E-02  0.6635E-02
     -6.965  0.3905E-01  0.4372E-02  0.1087E-01
     -6.884  0.3511E-01  0.4693E-02  0.1815E-01
     -6.803  0.3901E-01  0.6431E-02  0.5051E-01
     -6.721  0.4561E-01  0.7838E-02  0.9862E-01
     -6.640  0.6384E-01  0.1071E-01  0.1779E+00
     -6.559  0.8936E-01  0.1754E-01  0.3906E+00
     -6.477  0.1043E+00  0.2408E-01  0.6783E+00
     -6.396  0.1282E+00  0.3134E-01  0.9398E+00
     -6.315  0.1679E+00  0.3710E-01  0.1114E+01
     -6.233  0.1840E+00  0.4047E-01  0.1428E+01
     -6.152  0.1746E+00  0.4480E-01  0.2238E+01
     -6.071  0.1487E+00  0.4908E-01  0.2562E+01
     -5.989  0.1307E+00  0.4804E-01  0.2014E+01
     -5.908  0.1107E+00  0.4514E-01  0.1810E+01
     -5.827  0.7785E-01  0.3551E-01  0.1613E+01
     -5.745  0.6960E-01  0.2978E-01  0.1700E+01
     -5.664  0.5975E-01  0.2922E-01  0.1895E+01
     -5.583  0.4439E-01  0.2941E-01  0.1899E+01
     -5.501  0.3699E-01  0.2751E-01  0.1743E+01
     -5.420  0.3153E-01  0.2662E-01  0.1761E+01
     -5.339  0.3009E-01  0.2429E-01  0.1896E+01
     -5.257  0.2975E-01  0.2024E-01  0.2156E+01
     -5.176  0.2427E-01  0.1909E-01  0.2601E+01
     -5.095  0.2233E-01  0.1910E-01  0.2741E+01
     -5.013  0.2346E-01  0.1998E-01  0.2732E+01
     -4.932  0.3182E-01  0.2370E-01  0.2953E+01
     -4.851  0.3452E-01  0.2570E-01  0.3163E+01
     -4.769  0.3126E-01  0.2484E-01  0.3154E+01
     -4.688  0.2661E-01  0.2596E-01  0.3476E+01
     -4.607  0.3120E-01  0.3076E-01  0.3604E+01
     -4.525  0.4360E-01  0.3497E-01  0.3248E+01
     -4.444  0.5479E-01  0.3739E-01  0.2832E+01
     -4.363  0.5215E-01  0.3847E-01  0.2789E+01
     -4.281  0.4058E-01  0.3590E-01  0.3061E+01
     -4.200  0.3176E-01  0.3168E-01  0.3391E+01
     -4.119  0.3221E-01  0.2757E-01  0.3815E+01
     -4.037  0.3562E-01  0.2651E-01  0.4270E+01
     -3.956  0.3722E-01  0.2622E-01  0.4997E+01
     -3.875  0.3352E-01  0.2218E-01  0.5288E+01
     -3.793  0.3215E-01  0.2031E-01  0.4445E+01
     -3.712  0.3920E-01  0.2123E-01  0.3541E+01
     -3.631  0.4233E-01  0.1884E-01  0.2829E+01
     -3.549  0.3802E-01  0.1676E-01  0.2681E+01
     -3.468  0.3349E-01  0.1541E-01  0.1953E+01
     -3.387  0.2509E-01  0.1687E-01  0.9590E+00
     -3.305  0.2704E-01  0.1913E-01  0.6767E+00
     -3.224  0.3005E-01  0.1925E-01  0.6389E+00
     -3.143  0.3162E-01  0.2128E-01  0.5352E+00
     -3.061  0.2978E-01  0.2062E-01  0.4329E+00
     -2.980  0.3149E-01  0.1877E-01  0.3394E+00
     -2.899  0.2935E-01  0.1751E-01  0.2725E+00
     -2.817  0.3080E-01  0.1728E-01  0.2354E+00
     -2.736  0.4020E-01  0.1732E-01  0.2127E+00
     -2.655  0.4118E-01  0.1962E-01  0.2169E+00
     -2.573  0.4319E-01  0.2369E-01  0.2353E+00
     -2.492  0.4592E-01  0.2152E-01  0.2081E+00
     -2.411  0.4752E-01  0.2100E-01  0.1860E+00
     -2.329  0.5583E-01  0.2070E-01  0.1844E+00
     -2.248  0.7117E-01  0.2301E-01  0.1950E+00
     -2.167  0.8115E-01  0.2896E-01  0.1941E+00
     -2.085  0.7324E-01  0.3222E-01  0.1751E+00
     -2.004  0.8545E-01  0.3341E-01  0.1858E+00
     -1.923  0.9596E-01  0.3110E-01  0.1873E+00
     -1.841  0.7547E-01  0.3631E-01  0.1931E+00
     -1.760  0.5996E-01  0.3986E-01  0.1772E+00
     -1.679  0.6005E-01  0.4495E-01  0.1627E+00
     -1.597  0.5953E-01  0.5299E-01  0.1522E+00
     -1.516  0.4749E-01  0.5682E-01  0.1464E+00
     -1.435  0.4163E-01  0.5987E-01  0.1374E+00
     -1.353  0.3984E-01  0.5359E-01  0.1419E+00
     -1.272  0.3561E-01  0.4529E-01  0.1546E+00
     -1.191  0.3034E-01  0.4595E-01  0.1301E+00
     -1.109  0.2708E-01  0.3951E-01  0.9868E-01
     -1.028  0.2397E-01  0.3885E-01  0.9771E-01
     -0.947  0.2241E-01  0.3702E-01  0.1056E+00
     -0.865  0.2707E-01  0.3180E-01  0.1055E+00
     -0.784  0.3838E-01  0.3644E-01  0.1029E+00
     -0.703  0.4497E-01  0.4025E-01  0.1035E+00
     -0.621  0.4287E-01  0.4020E-01  0.1030E+00
     -0.540  0.3726E-01  0.3981E-01  0.9672E-01
     -0.459  0.3748E-01  0.3586E-01  0.7674E-01
     -0.377  0.3329E-01  0.3447E-01  0.6299E-01
     -0.296  0.3360E-01  0.4105E-01  0.7047E-01
     -0.214  0.3724E-01  0.5160E-01  0.6459E-01
     -0.133  0.3173E-01  0.4733E-01  0.5479E-01
     -0.052  0.4962E-01  0.5376E-01  0.6163E-01
      0.030  0.5630E-01  0.7018E-01  0.7122E-01
      0.111  0.4303E-01  0.7087E-01  0.6441E-01
      0.192  0.3299E-01  0.6174E-01  0.6001E-01
      0.274  0.3733E-01  0.5139E-01  0.5528E-01
      0.355  0.3102E-01  0.5046E-01  0.5035E-01
      0.436  0.1792E-01  0.3972E-01  0.4301E-01
      0.518  0.1623E-01  0.3214E-01  0.3676E-01
      0.599  0.2865E-01  0.4704E-01  0.5190E-01
      0.680  0.3047E-01  0.7534E-01  0.6334E-01
      0.762  0.2561E-01  0.7885E-01  0.5991E-01
      0.843  0.4059E-01  0.6428E-01  0.5997E-01
      0.924  0.4852E-01  0.7341E-01  0.5621E-01
      1.006  0.4921E-01  0.7878E-01  0.5756E-01
      1.087  0.4786E-01  0.6914E-01  0.6461E-01
      1.168  0.2947E-01  0.5609E-01  0.4385E-01
      1.250  0.2505E-01  0.5642E-01  0.3559E-01
      1.331  0.3351E-01  0.6587E-01  0.5076E-01
      1.412  0.2701E-01  0.6273E-01  0.4508E-01
      1.494  0.2870E-01  0.6222E-01  0.4123E-01
      1.575  0.2478E-01  0.5806E-01  0.4156E-01
      1.656  0.2061E-01  0.7494E-01  0.4747E-01
      1.738  0.1959E-01  0.9270E-01  0.5142E-01
      1.819  0.2158E-01  0.8374E-01  0.4153E-01
      1.900  0.3194E-01  0.6951E-01  0.3899E-01
      1.982  0.4232E-01  0.7627E-01  0.4934E-01
      2.063  0.3493E-01  0.8000E-01  0.4432E-01
      2.144  0.3217E-01  0.7475E-01  0.4341E-01
      2.226  0.3544E-01  0.8672E-01  0.4825E-01
      2.307  0.3513E-01  0.1062E+00  0.5136E-01
      2.388  0.3830E-01  0.9904E-01  0.5261E-01
      2.470  0.3433E-01  0.6130E-01  0.4716E-01
      2.551  0.3194E-01  0.5398E-01  0.4674E-01
      2.632  0.2061E-01  0.6765E-01  0.4067E-01
      2.714  0.1672E-01  0.5818E-01  0.3377E-01
      2.795  0.2160E-01  0.5752E-01  0.3345E-01
      2.876  0.2453E-01  0.6999E-01  0.3305E-01
      2.958  0.1471E-01  0.6412E-01  0.3147E-01
      3.039  0.7417E-02  0.4700E-01  0.2367E-01
      3.120  0.1232E-01  0.5129E-01  0.2729E-01
      3.202  0.1831E-01  0.6161E-01  0.4174E-01
      3.283  0.2070E-01  0.7086E-01  0.4108E-01
      3.364  0.2083E-01  0.6151E-01  0.3992E-01
      3.446  0.2069E-01  0.4699E-01  0.3676E-01
      3.527  0.2332E-01  0.5803E-01  0.4159E-01
      3.608  0.2297E-01  0.5489E-01  0.3403E-01
      3.690  0.1879E-01  0.4861E-01  0.3228E-01
      3.771  0.2061E-01  0.6963E-01  0.4786E-01
      3.852  0.1803E-01  0.5760E-01  0.4078E-01
      3.934  0.2561E-01  0.4232E-01  0.3750E-01
      4.015  0.3304E-01  0.3824E-01  0.3627E-01
      4.096  0.1960E-01  0.2045E-01  0.2215E-01
      4.178  0.1523E-01  0.1926E-01  0.1999E-01
      4.259  0.2579E-01  0.2793E-01  0.2964E-01
      4.340  0.3712E-01  0.2790E-01  0.3682E-01
      4.422  0.3527E-01  0.3234E-01  0.4400E-01
      4.503  0.4125E-01  0.4859E-01  0.5040E-01
      4.584  0.5955E-01  0.5469E-01  0.6240E-01
      4.666  0.6686E-01  0.5976E-01  0.8011E-01
      4.747  0.1006E+00  0.5987E-01  0.8174E-01
      4.828  0.1101E+00  0.5045E-01  0.7830E-01
      4.910  0.8714E-01  0.5009E-01  0.7776E-01
      4.991  0.9986E-01  0.5077E-01  0.7148E-01
      5.072  0.1102E+00  0.5278E-01  0.7577E-01
      5.154  0.1146E+00  0.5971E-01  0.7562E-01
      5.235  0.1200E+00  0.6254E-01  0.7689E-01
      5.316  0.1487E+00  0.6518E-01  0.7763E-01
      5.398  0.1580E+00  0.7231E-01  0.7462E-01
      5.479  0.1319E+00  0.7497E-01  0.6528E-01
      5.560  0.1042E+00  0.8670E-01  0.6498E-01
      5.642  0.1040E+00  0.9231E-01  0.6416E-01
      5.723  0.8631E-01  0.7055E-01  0.5085E-01
      5.804  0.6803E-01  0.5943E-01  0.4757E-01
      5.886  0.8420E-01  0.6687E-01  0.5786E-01
      5.967  0.8913E-01  0.7871E-01  0.5984E-01
      6.048  0.7331E-01  0.8669E-01  0.4881E-01
      6.130  0.6931E-01  0.7335E-01  0.4040E-01
      6.211  0.7785E-01  0.6646E-01  0.4532E-01
      6.292  0.6679E-01  0.7622E-01  0.5275E-01
      6.374  0.4826E-01  0.8494E-01  0.5304E-01
      6.455  0.6061E-01  0.9666E-01  0.6283E-01
      6.536  0.5449E-01  0.8103E-01  0.5337E-01
      6.618  0.3685E-01  0.8673E-01  0.4537E-01
      6.699  0.4398E-01  0.1092E+00  0.5294E-01
      6.780  0.4355E-01  0.1015E+00  0.5213E-01
      6.862  0.5110E-01  0.8404E-01  0.4934E-01
      6.943  0.5469E-01  0.8206E-01  0.4352E-01
      7.024  0.5001E-01  0.1046E+00  0.4735E-01
      7.106  0.4340E-01  0.9398E-01  0.4151E-01
      7.187  0.5227E-01  0.7758E-01  0.4653E-01
      7.268  0.5286E-01  0.6237E-01  0.4877E-01
      7.350  0.5570E-01  0.6148E-01  0.4302E-01
      7.431  0.7290E-01  0.8037E-01  0.5895E-01
      7.512  0.7250E-01  0.8961E-01  0.6456E-01
      7.594  0.5388E-01  0.8577E-01  0.5388E-01
      7.675  0.6037E-01  0.8283E-01  0.5880E-01
      7.756  0.5298E-01  0.8473E-01  0.5445E-01
      7.838  0.4422E-01  0.8846E-01  0.4447E-01
      7.919  0.5089E-01  0.9255E-01  0.4257E-01
      8.000  0.6472E-01  0.7616E-01  0.4702E-01
      8.082  0.7009E-01  0.6550E-01  0.4859E-01
      8.163  0.7782E-01  0.7786E-01  0.5791E-01
      8.244  0.8478E-01  0.9454E-01  0.7848E-01
      8.326  0.7348E-01  0.1051E+00  0.7446E-01
      8.407  0.5787E-01  0.1170E+00  0.6097E-01
      8.488  0.4856E-01  0.1090E+00  0.5698E-01
      8.570  0.5923E-01  0.1088E+00  0.5900E-01
      8.651  0.7264E-01  0.1016E+00  0.6021E-01
      8.732  0.6750E-01  0.9558E-01  0.6026E-01
      8.814  0.6795E-01  0.8774E-01  0.6393E-01
      8.895  0.6285E-01  0.7927E-01  0.6920E-01
      8.976  0.5719E-01  0.8922E-01  0.7015E-01
      9.058  0.5408E-01  0.9088E-01  0.5923E-01
      9.139  0.5534E-01  0.1119E+00  0.6134E-01
      9.220  0.5729E-01  0.1109E+00  0.6838E-01
      9.302  0.7905E-01  0.1130E+00  0.6772E-01
      9.383  0.8122E-01  0.1209E+00  0.7264E-01
      9.464  0.4688E-01  0.1161E+00  0.6522E-01
      9.546  0.3994E-01  0.1146E+00  0.6719E-01
      9.627  0.6120E-01  0.1103E+00  0.7492E-01
      9.708  0.5369E-01  0.1036E+00  0.6916E-01
      9.790  0.3450E-01  0.1013E+00  0.6118E-01
      9.871  0.3066E-01  0.7556E-01  0.5740E-01
      9.952  0.3516E-01  0.7662E-01  0.6032E-01
     10.034  0.4325E-01  0.1153E+00  0.6607E-01
     10.115  0.5086E-01  0.1412E+00  0.6897E-01
     10.196  0.4734E-01  0.1391E+00  0.7333E-01
     10.278  0.4964E-01  0.1220E+00  0.8493E-01
     10.359  0.5794E-01  0.1140E+00  0.8641E-01
     10.440  0.5316E-01  0.1297E+00  0.7917E-01
     10.522  0.5064E-01  0.1477E+00  0.8655E-01
     10.603  0.4737E-01  0.1356E+00  0.7665E-01
     10.684  0.4950E-01  0.1235E+00  0.6436E-01
     10.766  0.5171E-01  0.1216E+00  0.6725E-01
     10.847  0.6205E-01  0.1192E+00  0.7774E-01
     10.928  0.4931E-01  0.1085E+00  0.8371E-01
     11.010  0.3808E-01  0.1093E+00  0.7406E-01
     11.091  0.3877E-01  0.1190E+00  0.6264E-01
     11.173  0.3363E-01  0.1270E+00  0.6828E-01
     11.254  0.2731E-01  0.1248E+00  0.8046E-01
     11.335  0.3297E-01  0.1306E+00  0.8055E-01
     11.417  0.3727E-01  0.1388E+00  0.8016E-01
     11.498  0.3459E-01  0.1391E+00  0.7817E-01
     11.579  0.3705E-01  0.1332E+00  0.7694E-01
     11.661  0.4346E-01  0.1563E+00  0.7893E-01
     11.742  0.4190E-01  0.1667E+00  0.7271E-01
     11.823  0.3586E-01  0.1381E+00  0.6184E-01
     11.905  0.2685E-01  0.1421E+00  0.6561E-01
     11.986  0.2545E-01  0.1442E+00  0.7172E-01
     12.067  0.2951E-01  0.1322E+00  0.6414E-01
     12.149  0.3215E-01  0.1399E+00  0.6686E-01
     12.230  0.3085E-01  0.1517E+00  0.7495E-01
     12.311  0.3067E-01  0.1580E+00  0.8077E-01
     12.393  0.3193E-01  0.1574E+00  0.7073E-01
     12.474  0.3214E-01  0.1465E+00  0.7002E-01
     12.555  0.3091E-01  0.1452E+00  0.6972E-01
     12.637  0.2999E-01  0.1597E+00  0.7068E-01
     12.718  0.2690E-01  0.1466E+00  0.7313E-01
     12.799  0.2875E-01  0.1350E+00  0.7336E-01
     12.881  0.2990E-01  0.1309E+00  0.7409E-01
     12.962  0.2524E-01  0.1225E+00  0.7657E-01
     13.043  0.2071E-01  0.1175E+00  0.8134E-01
     13.125  0.1815E-01  0.1120E+00  0.7644E-01
     13.206  0.1388E-01  0.9255E-01  0.5580E-01
     13.287  0.9706E-02  0.5629E-01  0.3315E-01
     13.369  0.8366E-02  0.3134E-01  0.2138E-01
     13.450  0.4911E-02  0.1351E-01  0.9455E-02
     13.531  0.1377E-02  0.1895E-02  0.1430E-02
     13.613  0.6644E-03 -0.4810E-04  0.3978E-03
     13.694  0.1535E-03  0.5015E-05  0.1239E-03
     13.775 -0.4077E-04 -0.2675E-04 -0.3929E-04
     13.857 -0.6287E-05 -0.3620E-05 -0.6000E-05
     13.938 -0.1544E-06 -0.8802E-07 -0.1473E-06
     14.019 -0.8674E-09 -0.4939E-09 -0.8278E-09
     14.101 -0.1208E-11 -0.6876E-12 -0.1153E-11
     14.182 -0.4293E-15 -0.2444E-15 -0.4098E-15
     14.263  0.0000E+00  0.0000E+00  0.0000E+00
     14.345  0.0000E+00  0.0000E+00  0.0000E+00
     14.426  0.0000E+00  0.0000E+00  0.0000E+00
     14.507  0.0000E+00  0.0000E+00  0.0000E+00
     14.589  0.0000E+00  0.0000E+00  0.0000E+00
     14.670  0.0000E+00  0.0000E+00  0.0000E+00
     14.66994196     -9.73077546  301     -0.59251039      1.00000000
     -9.731  0.0000E+00  0.0000E+00  0.0000E+00
     -9.649  0.0000E+00  0.0000E+00  0.0000E+00
     -9.568  0.0000E+00  0.0000E+00  0.0000E+00
     -9.487 -0.6701E-35 -0.8767E-36 -0.1674E-36
     -9.405 -0.4053E-29 -0.5302E-30 -0.1013E-30
     -9.324 -0.6457E-24 -0.8448E-25 -0.1613E-25
     -9.243 -0.2703E-19 -0.3537E-20 -0.6754E-21
     -9.161 -0.2862E-15 -0.3744E-16 -0.7150E-17
     -9.080 -0.8053E-12 -0.1054E-12 -0.2012E-13
     -8.999 -0.5788E-09 -0.7573E-10 -0.1447E-10
     -8.917 -0.1034E-06 -0.1354E-07 -0.2597E-08
     -8.836 -0.4324E-05 -0.5679E-06 -0.1113E-06
     -8.755 -0.3499E-04 -0.4709E-05 -0.1076E-05
     -8.673  0.2601E-04  0.1887E-05 -0.1685E-05
     -8.592  0.7823E-03  0.1056E-03  0.2445E-04
     -8.511  0.2724E-02  0.3890E-03  0.1177E-03
     -8.429  0.2101E-02  0.3039E-03  0.9682E-04
     -8.348  0.1527E-02  0.2636E-03  0.1533E-03
     -8.267  0.1730E-02  0.3163E-03  0.1995E-03
     -8.185 -0.2317E-03 -0.1043E-04  0.7202E-05
     -8.104  0.6953E-02  0.9772E-03  0.6171E-03
     -8.023  0.2327E-01  0.3212E-02  0.1978E-02
     -7.941  0.1451E-01  0.2017E-02  0.1268E-02
     -7.860 -0.1996E-03 -0.3551E-04 -0.3762E-04
     -7.779  0.2502E-02  0.8287E-03  0.1188E-02
     -7.697  0.6411E-02  0.1793E-02  0.2472E-02
     -7.616  0.8487E-02  0.1605E-02  0.2418E-02
     -7.535  0.1472E-01  0.2103E-02  0.2345E-02
     -7.453  0.1036E-01  0.1250E-02  0.1451E-02
     -7.372  0.1602E-01  0.2242E-02  0.4302E-02
     -7.291  0.2790E-01  0.4432E-02  0.7477E-02
     -7.209  0.2309E-01  0.4390E-02  0.8290E-02
     -7.128  0.1312E-01  0.2862E-02  0.6590E-02
     -7.047  0.1799E-01  0.3165E-02  0.9605E-02
     -6.965  0.2775E-01  0.4190E-02  0.1638E-01
     -6.884  0.3131E-01  0.4441E-02  0.1929E-01
     -6.803  0.4287E-01  0.7182E-02  0.4318E-01
     -6.721  0.4233E-01  0.9815E-02  0.9385E-01
     -6.640  0.5960E-01  0.1205E-01  0.1753E+00
     -6.559  0.8787E-01  0.1499E-01  0.3369E+00
     -6.477  0.8852E-01  0.1823E-01  0.4946E+00
     -6.396  0.9599E-01  0.2303E-01  0.6632E+00
     -6.315  0.1050E+00  0.2454E-01  0.8219E+00
     -6.233  0.9591E-01  0.2423E-01  0.1030E+01
     -6.152  0.1359E+00  0.3122E-01  0.1774E+01
     -6.071  0.1800E+00  0.4203E-01  0.2334E+01
     -5.989  0.1582E+00  0.4480E-01  0.2113E+01
     -5.908  0.1476E+00  0.4510E-01  0.2082E+01
     -5.827  0.1204E+00  0.4093E-01  0.1967E+01
     -5.745  0.1054E+00  0.3667E-01  0.1986E+01
     -5.664  0.9505E-01  0.3468E-01  0.2133E+01
     -5.583  0.6309E-01  0.3461E-01  0.2464E+01
     -5.501  0.4102E-01  0.3330E-01  0.2488E+01
     -5.420  0.3336E-01  0.3024E-01  0.2246E+01
     -5.339  0.3031E-01  0.2472E-01  0.1833E+01
     -5.257  0.2958E-01  0.1918E-01  0.1621E+01
     -5.176  0.2867E-01  0.2111E-01  0.1960E+01
     -5.095  0.2891E-01  0.2529E-01  0.2454E+01
     -5.013  0.3175E-01  0.2849E-01  0.2805E+01
     -4.932  0.3008E-01  0.3094E-01  0.3130E+01
     -4.851  0.2748E-01  0.2917E-01  0.3306E+01
     -4.769  0.2610E-01  0.2612E-01  0.3196E+01
     -4.688  0.2460E-01  0.2503E-01  0.3270E+01
     -4.607  0.3142E-01  0.2911E-01  0.3419E+01
     -4.525  0.3803E-01  0.3352E-01  0.3516E+01
     -4.444  0.4340E-01  0.3769E-01  0.3652E+01
     -4.363  0.4790E-01  0.4189E-01  0.3614E+01
     -4.281  0.4243E-01  0.4014E-01  0.3825E+01
     -4.200  0.3433E-01  0.3589E-01  0.3695E+01
     -4.119  0.2819E-01  0.3148E-01  0.3677E+01
     -4.037  0.2818E-01  0.2731E-01  0.3893E+01
     -3.956  0.2923E-01  0.2505E-01  0.3907E+01
     -3.875  0.2218E-01  0.2247E-01  0.3697E+01
     -3.793  0.2272E-01  0.2323E-01  0.3490E+01
     -3.712  0.3073E-01  0.2498E-01  0.3196E+01
     -3.631  0.3763E-01  0.2197E-01  0.2747E+01
     -3.549  0.4201E-01  0.1742E-01  0.2627E+01
     -3.468  0.3774E-01  0.1533E-01  0.2114E+01
     -3.387  0.2854E-01  0.1435E-01  0.1166E+01
     -3.305  0.3885E-01  0.1503E-01  0.7328E+00
     -3.224  0.5548E-01  0.1476E-01  0.6115E+00
     -3.143  0.5820E-01  0.1422E-01  0.5228E+00
     -3.061  0.4341E-01  0.1499E-01  0.4650E+00
     -2.980  0.4448E-01  0.1818E-01  0.3906E+00
     -2.899  0.5428E-01  0.1904E-01  0.3301E+00
     -2.817  0.6214E-01  0.1825E-01  0.2859E+00
     -2.736  0.6284E-01  0.1868E-01  0.2879E+00
     -2.655  0.5188E-01  0.2100E-01  0.2710E+00
     -2.573  0.6559E-01  0.2146E-01  0.2575E+00
     -2.492  0.7328E-01  0.2072E-01  0.2478E+00