  45  45   1   0
  0.3756561E+02  0.8212611E-09  0.8212611E-09  0.2894076E-08  0.1000000E-15
  1.000000000000000E-004
  CAR 
 unknown system                          
      9.29626238    -10.16716901  301     -1.29853857      1.00000000
    -10.167  0.0000E+00  0.0000E+00
    -10.102  0.0000E+00  0.0000E+00
    -10.037  0.0000E+00  0.0000E+00
     -9.973  0.0000E+00  0.0000E+00
     -9.908  0.0000E+00  0.0000E+00
     -9.843  0.0000E+00  0.0000E+00
     -9.778 -0.5274E-27 -0.3422E-28
     -9.713 -0.8416E-25 -0.5494E-26
     -9.648 -0.1091E-22 -0.7135E-24
     -9.583 -0.1144E-20 -0.7493E-22
     -9.518 -0.9690E-19 -0.6362E-20
     -9.454 -0.6632E-17 -0.4366E-18
     -9.389 -0.3666E-15 -0.2422E-16
     -9.324 -0.1579E-13 -0.1048E-14
     -9.259 -0.5694E-12 -0.3799E-13
     -9.194 -0.1645E-10 -0.1105E-11
     -9.129 -0.3825E-09 -0.2592E-10
     -9.064 -0.7150E-08 -0.4898E-09
     -8.999 -0.1072E-06 -0.7448E-08
     -8.934 -0.1288E-05 -0.9100E-07
     -8.870 -0.1234E-04 -0.8917E-06
     -8.805 -0.9398E-04 -0.6989E-05
     -8.740 -0.5649E-03 -0.4364E-04
     -8.675 -0.2653E-02 -0.2158E-03
     -8.610 -0.9563E-02 -0.8362E-03
     -8.545 -0.2552E-01 -0.2492E-02
     -8.480 -0.4610E-01 -0.5483E-02
     -8.415 -0.3748E-01 -0.7915E-02
     -8.351  0.6895E-01 -0.3441E-02
     -8.286  0.3175E+00  0.1716E-01
     -8.221  0.6204E+00  0.5740E-01
     -8.156  0.7529E+00  0.1062E+00
     -8.091  0.5782E+00  0.1438E+00
     -8.026  0.3491E+00  0.1664E+00
     -7.961  0.6970E+00  0.2116E+00
     -7.896  0.2084E+01  0.3469E+00
     -7.832  0.4090E+01  0.6122E+00
     -7.767  0.5429E+01  0.9644E+00
     -7.702  0.5060E+01  0.1293E+01
     -7.637  0.3246E+01  0.1503E+01
     -7.572  0.1240E+01  0.1584E+01
     -7.507  0.5013E-01  0.1587E+01
     -7.442 -0.2109E+00  0.1573E+01
     -7.377  0.3659E-01  0.1576E+01
     -7.313  0.5125E+00  0.1609E+01
     -7.248  0.1388E+01  0.1699E+01
     -7.183  0.3030E+01  0.1896E+01
     -7.118  0.5449E+01  0.2249E+01
     -7.053  0.8102E+01  0.2775E+01
     -6.988  0.1022E+02  0.3438E+01
     -6.923  0.1112E+02  0.4160E+01
     -6.858  0.1029E+02  0.4828E+01
     -6.794  0.7838E+01  0.5336E+01
     -6.729  0.4901E+01  0.5654E+01
     -6.664  0.3244E+01  0.5865E+01
     -6.599  0.4294E+01  0.6143E+01
     -6.534  0.8891E+01  0.6720E+01
     -6.469  0.1772E+02  0.7870E+01
     -6.404  0.3113E+02  0.9889E+01
     -6.339  0.4775E+02  0.1299E+02
     -6.274  0.6328E+02  0.1709E+02
     -6.210  0.7197E+02  0.2176E+02
     -6.145  0.7169E+02  0.2641E+02
     -6.080  0.6721E+02  0.3077E+02
     -6.015  0.6601E+02  0.3506E+02
     -5.950  0.7071E+02  0.3964E+02
     -5.885  0.7729E+02  0.4466E+02
     -5.820  0.8062E+02  0.4989E+02
     -5.755  0.8028E+02  0.5510E+02
     -5.691  0.8073E+02  0.6033E+02
     -5.626  0.8616E+02  0.6592E+02
     -5.561  0.9511E+02  0.7210E+02
     -5.496  0.1010E+03  0.7865E+02
     -5.431  0.9887E+02  0.8506E+02
     -5.366  0.8997E+02  0.9090E+02
     -5.301  0.7956E+02  0.9606E+02
     -5.236  0.7105E+02  0.1007E+03
     -5.172  0.6346E+02  0.1048E+03
     -5.107  0.5464E+02  0.1083E+03
     -5.042  0.4646E+02  0.1113E+03
     -4.977  0.4518E+02  0.1143E+03
     -4.912  0.5467E+02  0.1178E+03
     -4.847  0.7016E+02  0.1224E+03
     -4.782  0.8124E+02  0.1276E+03
     -4.717  0.8190E+02  0.1330E+03
     -4.653  0.7622E+02  0.1379E+03
     -4.588  0.7313E+02  0.1427E+03
     -4.523  0.7675E+02  0.1476E+03
     -4.458  0.8275E+02  0.1530E+03
     -4.393  0.8306E+02  0.1584E+03
     -4.328  0.7406E+02  0.1632E+03
     -4.263  0.6118E+02  0.1672E+03
     -4.198  0.5562E+02  0.1708E+03
     -4.134  0.6527E+02  0.1750E+03
     -4.069  0.8742E+02  0.1807E+03
     -4.004  0.1097E+03  0.1878E+03
     -3.939  0.1203E+03  0.1956E+03
     -3.874  0.1190E+03  0.2033E+03
     -3.809  0.1169E+03  0.2109E+03
     -3.744  0.1228E+03  0.2189E+03
     -3.679  0.1325E+03  0.2275E+03
     -3.614  0.1335E+03  0.2361E+03
     -3.550  0.1193E+03  0.2439E+03
     -3.485  0.9676E+02  0.2502E+03
     -3.420  0.7855E+02  0.2553E+03
     -3.355  0.7199E+02  0.2599E+03
     -3.290  0.7525E+02  0.2648E+03
     -3.225  0.8240E+02  0.2702E+03
     -3.160  0.8904E+02  0.2759E+03
     -3.095  0.9318E+02  0.2820E+03
     -3.031  0.9327E+02  0.2880E+03
     -2.966  0.8818E+02  0.2937E+03
     -2.901  0.7985E+02  0.2989E+03
     -2.836  0.7386E+02  0.3037E+03
     -2.771  0.7455E+02  0.3086E+03
     -2.706  0.7979E+02  0.3137E+03
     -2.641  0.8317E+02  0.3191E+03
     -2.576  0.8176E+02  0.3244E+03
     -2.512  0.7944E+02  0.3296E+03
     -2.447  0.8157E+02  0.3349E+03
     -2.382  0.8837E+02  0.3406E+03
     -2.317  0.9512E+02  0.3468E+03
     -2.252  0.9720E+02  0.3531E+03
     -2.187  0.9401E+02  0.3592E+03
     -2.122  0.8945E+02  0.3650E+03
     -2.057  0.8850E+02  0.3707E+03
     -1.993  0.9192E+02  0.3767E+03
     -1.928  0.9537E+02  0.3829E+03
     -1.863  0.9453E+02  0.3890E+03
     -1.798  0.8957E+02  0.3948E+03
     -1.733  0.8415E+02  0.4003E+03
     -1.668  0.8225E+02  0.4056E+03
     -1.603  0.8720E+02  0.4113E+03
     -1.538  0.1012E+03  0.4178E+03
     -1.474  0.1219E+03  0.4258E+03
     -1.409  0.1396E+03  0.4348E+03
     -1.344  0.1427E+03  0.4441E+03
     -1.279  0.1276E+03  0.4524E+03
     -1.214  0.1022E+03  0.4590E+03
     -1.149  0.7695E+02  0.4640E+03
     -1.084  0.5641E+02  0.4676E+03
     -1.019  0.3894E+02  0.4702E+03
     -0.954  0.2292E+02  0.4716E+03
     -0.890  0.9943E+01  0.4723E+03
     -0.825  0.2942E+01  0.4725E+03
     -0.760  0.2977E+01  0.4727E+03
     -0.695  0.7833E+01  0.4732E+03
     -0.630  0.1309E+02  0.4740E+03
     -0.565  0.1484E+02  0.4750E+03
     -0.500  0.1211E+02  0.4758E+03
     -0.435  0.7006E+01  0.4762E+03
     -0.371  0.2737E+01  0.4764E+03
     -0.306  0.1569E+01  0.4765E+03
     -0.241  0.4036E+01  0.4768E+03
     -0.176  0.9236E+01  0.4774E+03
     -0.111  0.1539E+02  0.4784E+03
     -0.046  0.2034E+02  0.4797E+03
      0.019  0.2218E+02  0.4811E+03
      0.084  0.2037E+02  0.4825E+03
      0.148  0.1648E+02  0.4835E+03
      0.213  0.1368E+02  0.4844E+03
      0.278  0.1451E+02  0.4854E+03
      0.343  0.1817E+02  0.4865E+03
      0.408  0.2054E+02  0.4879E+03
      0.473  0.1805E+02  0.4890E+03
      0.538  0.1136E+02  0.4898E+03
      0.603  0.4480E+01  0.4901E+03
      0.667  0.8115E+00  0.4901E+03
      0.732  0.8501E+00  0.4902E+03
      0.797  0.3195E+01  0.4904E+03
      0.862  0.6717E+01  0.4908E+03
      0.927  0.1131E+02  0.4915E+03
      0.992  0.1659E+02  0.4926E+03
      1.057  0.2072E+02  0.4940E+03
      1.122  0.2200E+02  0.4954E+03
      1.186  0.2112E+02  0.4968E+03
      1.251  0.2043E+02  0.4981E+03
      1.316  0.2082E+02  0.4994E+03
      1.381  0.2089E+02  0.5008E+03
      1.446  0.1925E+02  0.5020E+03
      1.511  0.1602E+02  0.5031E+03
      1.576  0.1199E+02  0.5039E+03
      1.641  0.7827E+01  0.5044E+03
      1.706  0.4465E+01  0.5047E+03
      1.770  0.3051E+01  0.5049E+03
      1.835  0.3662E+01  0.5051E+03
      1.900  0.4773E+01  0.5054E+03
      1.965  0.4592E+01  0.5057E+03
      2.030  0.2744E+01  0.5059E+03
      2.095  0.4552E+00  0.5059E+03
      2.160 -0.4261E+00  0.5059E+03
      2.225  0.1638E+01  0.5060E+03
      2.289  0.6955E+01  0.5064E+03
      2.354  0.1371E+02  0.5073E+03
      2.419  0.1878E+02  0.5085E+03
      2.484  0.2041E+02  0.5099E+03
      2.549  0.1967E+02  0.5111E+03
      2.614  0.1873E+02  0.5124E+03
      2.679  0.1864E+02  0.5136E+03
      2.744  0.1968E+02  0.5149E+03
      2.808  0.2231E+02  0.5163E+03
      2.873  0.2611E+02  0.5180E+03
      2.938  0.2834E+02  0.5198E+03
      3.003  0.2563E+02  0.5215E+03
      3.068  0.1804E+02  0.5227E+03
      3.133  0.1035E+02  0.5233E+03
      3.198  0.7875E+01  0.5238E+03
      3.263  0.1131E+02  0.5246E+03
      3.327  0.1625E+02  0.5256E+03
      3.392  0.1772E+02  0.5268E+03
      3.457  0.1466E+02  0.5277E+03
      3.522  0.1014E+02  0.5284E+03
      3.587  0.7900E+01  0.5289E+03
      3.652  0.9074E+01  0.5295E+03
      3.717  0.1164E+02  0.5302E+03
      3.782  0.1278E+02  0.5311E+03
      3.847  0.1135E+02  0.5318E+03
      3.911  0.8216E+01  0.5323E+03
      3.976  0.4820E+01  0.5327E+03
      4.041  0.2168E+01  0.5328E+03
      4.106  0.6862E+00  0.5328E+03
      4.171  0.4793E+00  0.5329E+03
      4.236  0.1445E+01  0.5330E+03
      4.301  0.3276E+01  0.5332E+03
      4.366  0.5799E+01  0.5336E+03
      4.430  0.9527E+01  0.5342E+03
      4.495  0.1521E+02  0.5352E+03
      4.560  0.2213E+02  0.5366E+03
      4.625  0.2760E+02  0.5384E+03
      4.690  0.2910E+02  0.5403E+03
      4.755  0.2679E+02  0.5420E+03
      4.820  0.2292E+02  0.5435E+03
      4.885  0.1942E+02  0.5448E+03
      4.949  0.1657E+02  0.5458E+03
      5.014  0.1384E+02  0.5467E+03
      5.079  0.1115E+02  0.5475E+03
      5.144  0.9289E+01  0.5481E+03
      5.209  0.9209E+01  0.5487E+03
      5.274  0.1067E+02  0.5494E+03
      5.339  0.1189E+02  0.5501E+03
      5.404  0.1096E+02  0.5508E+03
      5.468  0.7712E+01  0.5513E+03
      5.533  0.3788E+01  0.5516E+03
      5.598  0.9334E+00  0.5516E+03
      5.663 -0.3231E+00  0.5516E+03
      5.728 -0.5048E+00  0.5516E+03
      5.793 -0.3148E+00  0.5516E+03
      5.858 -0.1335E+00  0.5516E+03
      5.923 -0.4255E-01  0.5516E+03
      5.987 -0.1057E-01  0.5516E+03
      6.052 -0.2082E-02  0.5516E+03
      6.117 -0.3275E-03  0.5516E+03
      6.182 -0.4136E-04  0.5516E+03
      6.247 -0.4203E-05  0.5516E+03
      6.312 -0.3446E-06  0.5516E+03
      6.377 -0.2947E-07  0.5516E+03
      6.442 -0.1079E-06  0.5516E+03
      6.507 -0.1357E-05  0.5516E+03
      6.571 -0.1380E-04  0.5516E+03
      6.636 -0.1117E-03  0.5516E+03
      6.701 -0.7148E-03  0.5516E+03
      6.766 -0.3588E-02  0.5516E+03
      6.831 -0.1391E-01  0.5516E+03
      6.896 -0.4042E-01  0.5516E+03
      6.961 -0.8227E-01  0.5515E+03
      7.026 -0.9144E-01  0.5515E+03
      7.090  0.5764E-01  0.5515E+03
      7.155  0.4979E+00  0.5516E+03
      7.220  0.1174E+01  0.5517E+03
      7.285  0.1741E+01  0.5518E+03
      7.350  0.1802E+01  0.5519E+03
      7.415  0.1311E+01  0.5520E+03
      7.480  0.6212E+00  0.5520E+03
      7.545  0.1199E+00  0.5520E+03
      7.609 -0.7945E-01  0.5520E+03
      7.674 -0.8960E-01  0.5520E+03
      7.739 -0.4809E-01  0.5520E+03
      7.804 -0.1763E-01  0.5520E+03
      7.869 -0.4803E-02  0.5520E+03
      7.934 -0.1006E-02  0.5520E+03
      7.999 -0.1648E-03  0.5520E+03
      8.064 -0.2133E-04  0.5520E+03
      8.128 -0.2195E-05  0.5520E+03
      8.193 -0.1804E-06  0.5520E+03
      8.258 -0.1187E-07  0.5520E+03
      8.323 -0.6272E-09  0.5520E+03
      8.388 -0.2664E-10  0.5520E+03
      8.453 -0.9111E-12  0.5520E+03
      8.518 -0.2586E-13  0.5520E+03
      8.583  0.0000E+00  0.5520E+03
      8.647  0.0000E+00  0.5520E+03
      8.712  0.0000E+00  0.5520E+03
      8.777  0.0000E+00  0.5520E+03
      8.842  0.0000E+00  0.5520E+03
      8.907  0.0000E+00  0.5520E+03
      8.972  0.0000E+00  0.5520E+03
      9.037  0.0000E+00  0.5520E+03
      9.102  0.0000E+00  0.5520E+03
      9.167  0.0000E+00  0.5520E+03
      9.231  0.0000E+00  0.5520E+03
      9.296  0.0000E+00  0.5520E+03
      9.29626238    -10.16716901  301     -1.29853857      1.00000000
    -10.167  0.0000E+00  0.0000E+00  0.0000E+00
    -10.102  0.0000E+00  0.0000E+00  0.0000E+00
    -10.037  0.0000E+00  0.0000E+00  0.0000E+00
     -9.973  0.0000E+00  0.0000E+00  0.0000E+00
     -9.908  0.0000E+00  0.0000E+00  0.0000E+00
     -9.843  0.0000E+00  0.0000E+00  0.0000E+00
     -9.778 -0.1615E-29 -0.1752E-30 -0.3095E-33
     -9.713 -0.2577E-27 -0.2795E-28 -0.4938E-31
     -9.648 -0.3341E-25 -0.3625E-26 -0.6403E-29
     -9.583 -0.3503E-23 -0.3799E-24 -0.6712E-27
     -9.518 -0.2967E-21 -0.3219E-22 -0.5686E-25
     -9.454 -0.2031E-19 -0.2203E-20 -0.3892E-23
     -9.389 -0.1122E-17 -0.1218E-18 -0.2151E-21
     -9.324 -0.4833E-16 -0.5243E-17 -0.9263E-20
     -9.259 -0.1743E-14 -0.1891E-15 -0.3341E-18
     -9.194 -0.5036E-13 -0.5463E-14 -0.9652E-17
     -9.129 -0.1171E-11 -0.1271E-12 -0.2245E-15
     -9.064 -0.2189E-10 -0.2375E-11 -0.4196E-14
     -8.999 -0.3284E-09 -0.3562E-10 -0.6293E-13
     -8.934 -0.3943E-08 -0.4277E-09 -0.7557E-12
     -8.870 -0.3779E-07 -0.4099E-08 -0.7242E-11
     -8.805 -0.2878E-06 -0.3122E-07 -0.5516E-10
     -8.740 -0.1730E-05 -0.1876E-06 -0.3318E-09
     -8.675 -0.8124E-05 -0.8813E-06 -0.1563E-08
     -8.610 -0.2928E-04 -0.3176E-05 -0.5701E-08
     -8.545 -0.7815E-04 -0.8479E-05 -0.1604E-07
     -8.480 -0.1411E-03 -0.1532E-04 -0.3720E-07
     -8.415 -0.1147E-03 -0.1251E-04 -0.9876E-07
     -8.351  0.2118E-03  0.2255E-04 -0.4176E-06
     -8.286  0.9753E-03  0.1038E-03 -0.1948E-05
     -8.221  0.1911E-02  0.2003E-03 -0.7261E-05
     -8.156  0.2335E-02  0.2348E-03 -0.1970E-04
     -8.091  0.1824E-02  0.1649E-03 -0.3543E-04
     -8.026  0.1110E-02  0.9522E-04 -0.2706E-04
     -7.961  0.2044E-02  0.2774E-03  0.6067E-04
     -7.896  0.5983E-02  0.8938E-03  0.2662E-03
     -7.832  0.1171E-01  0.1762E-02  0.5329E-03
     -7.767  0.1552E-01  0.2336E-02  0.7039E-03
     -7.702  0.1437E-01  0.2173E-02  0.6518E-03
     -7.637  0.9041E-02  0.1389E-02  0.4117E-03
     -7.572  0.3313E-02  0.5238E-03  0.1426E-03
     -7.507  0.5095E-03  0.1383E-04 -0.3199E-04
     -7.442  0.1264E-02 -0.9288E-04 -0.1032E-03
     -7.377  0.3875E-02  0.1761E-04 -0.1001E-03
     -7.313  0.6085E-02  0.2324E-03  0.5056E-04
     -7.248  0.7390E-02  0.6866E-03  0.5560E-03
     -7.183  0.1040E-01  0.1669E-02  0.1561E-02
     -7.118  0.1918E-01  0.3318E-02  0.2916E-02
     -7.053  0.3473E-01  0.5383E-02  0.4289E-02
     -6.988  0.5151E-01  0.7241E-02  0.5460E-02
     -6.923  0.5966E-01  0.8105E-02  0.6179E-02
     -6.858  0.5300E-01  0.7422E-02  0.5887E-02
     -6.794  0.3487E-01  0.5325E-02  0.4397E-02
     -6.729  0.1495E-01  0.2681E-02  0.3146E-02
     -6.664  0.1112E-02  0.5636E-03  0.4994E-02
     -6.599 -0.3394E-02 -0.2373E-03  0.1242E-01
     -6.534  0.3362E-02  0.8570E-03  0.2678E-01
     -6.469  0.2320E-01  0.4392E-02  0.4968E-01
     -6.404  0.5296E-01  0.1043E-01  0.8358E-01
     -6.339  0.8140E-01  0.1773E-01  0.1286E+00
     -6.274  0.9655E-01  0.2371E-01  0.1785E+00
     -6.210  0.9823E-01  0.2593E-01  0.2235E+00
     -6.145  0.9985E-01  0.2434E-01  0.2626E+00
     -6.080  0.1134E+00  0.2184E-01  0.3076E+00
     -6.015  0.1338E+00  0.2177E-01  0.3682E+00
     -5.950  0.1425E+00  0.2454E-01  0.4373E+00
     -5.885  0.1283E+00  0.2737E-01  0.5022E+00
     -5.820  0.1008E+00  0.2784E-01  0.5675E+00
     -5.755  0.8299E-01  0.2719E-01  0.6598E+00
     -5.691  0.9538E-01  0.2997E-01  0.8074E+00
     -5.626  0.1415E+00  0.3962E-01  0.1011E+01
     -5.561  0.2015E+00  0.5403E-01  0.1230E+01
     -5.496  0.2409E+00  0.6596E-01  0.1399E+01
     -5.431  0.2353E+00  0.6895E-01  0.1474E+01
     -5.366  0.1893E+00  0.6253E-01  0.1450E+01
     -5.301  0.1287E+00  0.5142E-01  0.1339E+01
     -5.236  0.7751E-01  0.4067E-01  0.1151E+01
     -5.172  0.4462E-01  0.3245E-01  0.9109E+00
     -5.107  0.2741E-01  0.2664E-01  0.6825E+00
     -5.042  0.2066E-01  0.2316E-01  0.5617E+00
     -4.977  0.2123E-01  0.2268E-01  0.6268E+00
     -4.912  0.2620E-01  0.2537E-01  0.8742E+00
     -4.847  0.3083E-01  0.2976E-01  0.1188E+01
     -4.782  0.3147E-01  0.3350E-01  0.1403E+01
     -4.717  0.2880E-01  0.3526E-01  0.1440E+01
     -4.653  0.2597E-01  0.3533E-01  0.1365E+01
     -4.588  0.2504E-01  0.3433E-01  0.1311E+01
     -4.523  0.2653E-01  0.3193E-01  0.1337E+01
     -4.458  0.2980E-01  0.2740E-01  0.1384E+01
     -4.393  0.3237E-01  0.2089E-01  0.1337E+01
     -4.328  0.3085E-01  0.1386E-01  0.1143E+01
     -4.263  0.2458E-01  0.8694E-02  0.8868E+00
     -4.198  0.1704E-01  0.7718E-02  0.7619E+00
     -4.134  0.1248E-01  0.1173E-01  0.9198E+00
     -4.069  0.1216E-01  0.1878E-01  0.1319E+01
     -4.004  0.1490E-01  0.2517E-01  0.1723E+01
     -3.939  0.2038E-01  0.2885E-01  0.1911E+01
     -3.874  0.3025E-01  0.3207E-01  0.1904E+01
     -3.809  0.4552E-01  0.3921E-01  0.1953E+01
     -3.744  0.6364E-01  0.5184E-01  0.2257E+01
     -3.679  0.7867E-01  0.6626E-01  0.2726E+01
     -3.614  0.8433E-01  0.7520E-01  0.3052E+01
     -3.550  0.7798E-01  0.7266E-01  0.2997E+01
     -3.485  0.6349E-01  0.5883E-01  0.2593E+01
     -3.420  0.4961E-01  0.4076E-01  0.2085E+01
     -3.355  0.4282E-01  0.2704E-01  0.1704E+01
     -3.290  0.4177E-01  0.2257E-01  0.1541E+01
     -3.225  0.4033E-01  0.2836E-01  0.1572E+01
     -3.160  0.3497E-01  0.4308E-01  0.1738E+01
     -3.095  0.2737E-01  0.6153E-01  0.1950E+01
     -3.031  0.2092E-01  0.7404E-01  0.2084E+01
     -2.966  0.1708E-01  0.7176E-01  0.2043E+01
     -2.901  0.1540E-01  0.5472E-01  0.1850E+01
     -2.836  0.1550E-01  0.3323E-01  0.1654E+01
     -2.771  0.1795E-01  0.1999E-01  0.1606E+01
     -2.706  0.2316E-01  0.2086E-01  0.1716E+01
     -2.641  0.3022E-01  0.3240E-01  0.1862E+01
     -2.576  0.3753E-01  0.4660E-01  0.1930E+01
     -2.512  0.4413E-01  0.5722E-01  0.1938E+01
     -2.447  0.4957E-01  0.6247E-01  0.1984E+01
     -2.382  0.5299E-01  0.6341E-01  0.2113E+01
     -2.317  0.5318E-01  0.6105E-01  0.2262E+01
     -2.252  0.4895E-01  0.5515E-01  0.2322E+01
     -2.187  0.4024E-01  0.4588E-01  0.2234E+01
     -2.122  0.3015E-01  0.3653E-01  0.2056E+01
     -2.057  0.2413E-01  0.3269E-01  0.1920E+01
     -1.993  0.2488E-01  0.3647E-01  0.1913E+01
     -1.928  0.2898E-01  0.4290E-01  0.2012E+01
     -1.863  0.3086E-01  0.4451E-01  0.2137E+01
     -1.798  0.2881E-01  0.3919E-01  0.2232E+01
     -1.733  0.2592E-01  0.3175E-01  0.2277E+01
     -1.668  0.2652E-01  0.2813E-01  0.2288E+01
     -1.603  0.3312E-01  0.3016E-01  0.2307E+01
     -1.538  0.4472E-01  0.3542E-01  0.2393E+01
     -1.474  0.5549E-01  0.3969E-01  0.2555E+01
     -1.409  0.5715E-01  0.3907E-01  0.2689E+01
     -1.344  0.4621E-01  0.3219E-01  0.2622E+01
     -1.279  0.2847E-01  0.2179E-01  0.2277E+01
     -1.214  0.1414E-01  0.1289E-01  0.1772E+01
     -1.149  0.8814E-02  0.8698E-02  0.1326E+01
     -1.084  0.9879E-02  0.8194E-02  0.1051E+01
     -1.019  0.1068E-01  0.7782E-02  0.8765E+00
     -0.954  0.7437E-02  0.5184E-02  0.6708E+00
     -0.890  0.3118E-02  0.1908E-02  0.4067E+00
     -0.825  0.5669E-02  0.2433E-02  0.1715E+00
     -0.760  0.2144E-01  0.1075E-01  0.5250E-01
     -0.695  0.4782E-01  0.2622E-01  0.4800E-01
     -0.630  0.7194E-01  0.4201E-01  0.8745E-01
     -0.565  0.7936E-01  0.4892E-01  0.1046E+00
     -0.500  0.6589E-01  0.4251E-01  0.8211E-01
     -0.435  0.4064E-01  0.2682E-01  0.4177E-01
     -0.371  0.1809E-01  0.1131E-01  0.1287E-01
     -0.306  0.7616E-02  0.4429E-02  0.1149E-01
     -0.241  0.9099E-02  0.9433E-02  0.3875E-01
     -0.176  0.1626E-01  0.2369E-01  0.8630E-01
     -0.111  0.2316E-01  0.4011E-01  0.1398E+00
     -0.046  0.2758E-01  0.5045E-01  0.1805E+00
      0.019  0.2927E-01  0.4986E-01  0.1906E+00
      0.084  0.2771E-01  0.4009E-01  0.1666E+00
      0.148  0.2384E-01  0.2925E-01  0.1296E+00
      0.213  0.2239E-01  0.2810E-01  0.1186E+00
      0.278  0.2825E-01  0.4256E-01  0.1599E+00
      0.343  0.3944E-01  0.6572E-01  0.2345E+00
      0.408  0.4652E-01  0.7973E-01  0.2831E+00
      0.473  0.4165E-01  0.7117E-01  0.2579E+00
      0.538  0.2665E-01  0.4455E-01  0.1690E+00
      0.603  0.1054E-01  0.1772E-01  0.7080E-01
      0.667  0.7911E-03  0.5571E-02  0.8637E-02
      0.732 -0.1172E-02  0.9932E-02 -0.1020E-01
      0.797  0.3171E-02  0.2282E-01 -0.1090E-02
      0.862  0.1445E-01  0.3692E-01  0.2501E-01
      0.927  0.3510E-01  0.5259E-01  0.6791E-01
      0.992  0.6292E-01  0.7321E-01  0.1233E+00
      1.057  0.8748E-01  0.9559E-01  0.1719E+00
      1.122  0.9760E-01  0.1115E+00  0.1923E+00
      1.186  0.9196E-01  0.1188E+00  0.1819E+00
      1.251  0.7836E-01  0.1232E+00  0.1574E+00
      1.316  0.6341E-01  0.1258E+00  0.1361E+00
      1.381  0.4785E-01  0.1199E+00  0.1229E+00
      1.446  0.3128E-01  0.1018E+00  0.1142E+00
      1.511  0.1619E-01  0.7699E-01  0.1033E+00
      1.576  0.5793E-02  0.5241E-01  0.8401E-01
      1.641  0.7611E-03  0.3156E-01  0.5698E-01
      1.706 -0.5119E-03  0.1722E-01  0.3284E-01
      1.770  0.1441E-03  0.1268E-01  0.2420E-01
      1.835  0.1464E-02  0.1704E-01  0.3197E-01
      1.900  0.2448E-02  0.2290E-01  0.4274E-01
      1.965  0.2389E-02  0.2218E-01  0.4173E-01
      2.030  0.1289E-02  0.1350E-01  0.2673E-01
      2.095 -0.1012E-03  0.2647E-02  0.8180E-02
      2.160 -0.6472E-03 -0.2356E-02 -0.8699E-03
      2.225  0.7531E-03  0.4702E-02  0.7419E-02
      2.289  0.4527E-02  0.2569E-01  0.3220E-01
      2.354  0.9908E-02  0.5594E-01  0.6231E-01
      2.419  0.1584E-01  0.8608E-01  0.8196E-01
      2.484  0.2269E-01  0.1084E+00  0.8450E-01
      2.549  0.3151E-01  0.1201E+00  0.7834E-01
      2.614  0.4105E-01  0.1212E+00  0.7642E-01
      2.679  0.4769E-01  0.1141E+00  0.8527E-01
      2.744  0.4973E-01  0.1074E+00  0.1074E+00
      2.808  0.4936E-01  0.1127E+00  0.1440E+00
      2.873  0.4823E-01  0.1313E+00  0.1861E+00
      2.938  0.4382E-01  0.1463E+00  0.2080E+00
      3.003  0.3318E-01  0.1353E+00  0.1858E+00
      3.068  0.1886E-01  0.9700E-01  0.1260E+00
      3.133  0.7873E-02  0.5799E-01  0.6628E-01
      3.198  0.5111E-02  0.4811E-01  0.4252E-01
      3.263  0.9148E-02  0.6980E-01  0.5778E-01
      3.327  0.1415E-01  0.9639E-01  0.8439E-01
      3.392  0.1520E-01  0.1001E+00  0.9302E-01
      3.457  0.1241E-01  0.7866E-01  0.7847E-01
      3.522  0.1060E-01  0.5475E-01  0.6014E-01
      3.587  0.1449E-01  0.5188E-01  0.6035E-01
      3.652  0.2320E-01  0.7198E-01  0.8108E-01
      3.717  0.2990E-01  0.9453E-01  0.1010E+00
      3.782  0.2824E-01  0.9737E-01  0.9741E-01
      3.847  0.1887E-01  0.7677E-01  0.6908E-01
      3.911  0.8114E-02  0.4618E-01  0.3418E-01
      3.976  0.1271E-02  0.2021E-01  0.9605E-02
      4.041 -0.1053E-02  0.4669E-02 -0.1174E-02
      4.106 -0.9589E-03 -0.2041E-02 -0.3519E-02
      4.171 -0.1914E-03 -0.3971E-02 -0.3129E-02
      4.236  0.7180E-03 -0.4366E-02 -0.2627E-02
      4.301  0.1788E-02 -0.3589E-02 -0.1609E-02
      4.366  0.3150E-02  0.1683E-02  0.3066E-02
      4.430  0.5123E-02  0.1612E-01  0.1596E-01
      4.495  0.7946E-02  0.4042E-01  0.3897E-01
      4.560  0.1113E-01  0.6860E-01  0.6739E-01
      4.625  0.1361E-01  0.9282E-01  0.9180E-01
      4.690  0.1490E-01  0.1100E+00  0.1051E+00
      4.755  0.1573E-01  0.1198E+00  0.1061E+00
      4.820  0.1695E-01  0.1180E+00  0.9652E-01
      4.885  0.1859E-01  0.9876E-01  0.7762E-01
      4.949  0.1989E-01  0.6548E-01  0.5310E-01
      5.014  0.1994E-01  0.3212E-01  0.3021E-01
      5.079  0.1804E-01  0.1150E-01  0.1561E-01
      5.144  0.1440E-01  0.5847E-02  0.1116E-01
      5.209  0.1061E-01  0.9292E-02  0.1440E-01
      5.274  0.8360E-02  0.1482E-01  0.2064E-01
      5.339  0.7720E-02  0.1769E-01  0.2469E-01
      5.404  0.7172E-02  0.1610E-01  0.2307E-01
      5.468  0.5523E-02  0.1108E-01  0.1631E-01
      5.533  0.3094E-02  0.5380E-02  0.8121E-02
      5.598  0.1006E-02  0.1350E-02  0.2129E-02
      5.663 -0.9179E-04 -0.4260E-03 -0.5786E-03
      5.728 -0.3555E-03 -0.7046E-03 -0.1031E-02
      5.793 -0.2557E-03 -0.4509E-03 -0.6647E-03
      5.858 -0.1176E-03 -0.1961E-03 -0.2884E-03
      5.923 -0.3974E-04 -0.6423E-04 -0.9371E-04
      5.987 -0.1033E-04 -0.1641E-04 -0.2368E-04
      6.052 -0.2106E-05 -0.3323E-05 -0.4734E-05
      6.117 -0.3407E-06 -0.5378E-06 -0.7551E-06
      6.182 -0.4398E-07 -0.6984E-07 -0.9657E-07
      6.247 -0.4548E-08 -0.7295E-08 -0.9932E-08
      6.312 -0.3779E-09 -0.6140E-09 -0.8230E-09
      6.377 -0.2761E-10 -0.4636E-10 -0.6010E-10
      6.442 -0.3942E-10 -0.7826E-10 -0.8390E-10
      6.507 -0.4899E-09 -0.9780E-09 -0.1023E-08
      6.571 -0.5039E-08 -0.1006E-07 -0.1032E-07
      6.636 -0.4126E-07 -0.8233E-07 -0.8288E-07
      6.701 -0.2673E-06 -0.5334E-06 -0.5264E-06
      6.766 -0.1359E-05 -0.2711E-05 -0.2620E-05
      6.831 -0.5338E-05 -0.1065E-04 -0.1006E-04
      6.896 -0.1576E-04 -0.3142E-04 -0.2894E-04
      6.961 -0.3274E-04 -0.6527E-04 -0.5804E-04
      7.026 -0.3808E-04 -0.7588E-04 -0.6233E-04
      7.090  0.1807E-04  0.3615E-04  0.4694E-04
      7.155  0.1914E-03  0.3817E-03  0.3600E-03
      7.220  0.4648E-03  0.9269E-03  0.8316E-03
      7.285  0.7020E-03  0.1399E-02  0.1216E-02
      7.350  0.7386E-03  0.1472E-02  0.1243E-02
      7.415  0.5467E-03  0.1090E-02  0.8923E-03
      7.480  0.2654E-03  0.5287E-03  0.4148E-03
      7.545  0.5546E-04  0.1104E-03  0.7460E-04
      7.609 -0.3087E-04 -0.6156E-04 -0.5702E-04
      7.674 -0.3714E-04 -0.7401E-04 -0.6131E-04
      7.739 -0.2036E-04 -0.4057E-04 -0.3235E-04
      7.804 -0.7574E-05 -0.1509E-04 -0.1172E-04
      7.869 -0.2089E-05 -0.4161E-05 -0.3160E-05
      7.934 -0.4424E-06 -0.8810E-06 -0.6556E-06
      7.999 -0.7322E-07 -0.1458E-06 -0.1064E-06
      8.064 -0.9571E-08 -0.1906E-07 -0.1366E-07
      8.128 -0.9943E-09 -0.1980E-08 -0.1393E-08
      8.193 -0.8245E-10 -0.1641E-09 -0.1135E-09
      8.258 -0.5475E-11 -0.1090E-10 -0.7408E-11
      8.323 -0.2917E-12 -0.5807E-12 -0.3881E-12
      8.388 -0.1250E-13 -0.2487E-13 -0.1635E-13
      8.453 -0.4312E-15 -0.8581E-15 -0.5543E-15
      8.518 -0.1213E-16 -0.2415E-16 -0.1586E-16
      8.583  0.0000E+00  0.0000E+00  0.0000E+00
      8.647  0.0000E+00  0.0000E+00  0.0000E+00
      8.712  0.0000E+00  0.0000E+00  0.0000E+00
      8.777  0.0000E+00  0.0000E+00  0.0000E+00
      8.842  0.0000E+00  0.0000E+00  0.0000E+00
      8.907  0.0000E+00  0.0000E+00  0.0000E+00
      8.972  0.0000E+00  0.0000E+00  0.0000E+00
      9.037  0.0000E+00  0.0000E+00  0.0000E+00
      9.102  0.0000E+00  0.0000E+00  0.0000E+00
      9.167  0.0000E+00  0.0000E+00  0.0000E+00
      9.231  0.0000E+00  0.0000E+00  0.0000E+00
      9.296  0.0000E+00  0.0000E+00  0.0000E+00
      9.29626238    -10.16716901  301     -1.29853857      1.00000000
    -10.167  0.0000E+00  0.0000E+00  0.0000E+00
    -10.102  0.0000E+00  0.0000E+00  0.0000E+00
    -10.037  0.0000E+00  0.0000E+00  0.0000E+00
     -9.973  0.0000E+00  0.0000E+00  0.0000E+00
     -9.908  0.0000E+00  0.0000E+00  0.0000E+00
     -9.843  0.0000E+00  0.0000E+00  0.0000E+00
     -9.778 -0.7469E-29 -0.1034E-30 -0.2541E-31
     -9.713 -0.1192E-26 -0.1649E-28 -0.4055E-29
     -9.648 -0.1545E-24 -0.2139E-26 -0.5259E-27
     -9.583 -0.1620E-22 -0.2242E-24 -0.5512E-25
     -9.518 -0.1372E-20 -0.1899E-22 -0.4670E-23
     -9.454 -0.9392E-19 -0.1300E-20 -0.3196E-21
     -9.389 -0.5191E-17 -0.7185E-19 -0.1766E-19
     -9.324 -0.2235E-15 -0.3094E-17 -0.7607E-18
     -9.259 -0.8063E-14 -0.1116E-15 -0.2744E-16
     -9.194 -0.2329E-12 -0.3224E-14 -0.7926E-15
     -9.129 -0.5417E-11 -0.7497E-13 -0.1843E-13
     -9.064 -0.1013E-09 -0.1401E-11 -0.3446E-12
     -8.999 -0.1519E-08 -0.2102E-10 -0.5168E-11
     -8.934 -0.1824E-07 -0.2524E-09 -0.6206E-10
     -8.870 -0.1748E-06 -0.2419E-08 -0.5947E-09
     -8.805 -0.1331E-05 -0.1842E-07 -0.4529E-08
     -8.740 -0.8001E-05 -0.1107E-06 -0.2722E-07
     -8.675 -0.3758E-04 -0.5200E-06 -0.1279E-06
     -8.610 -0.1354E-03 -0.1875E-05 -0.4609E-06
     -8.545 -0.3615E-03 -0.5006E-05 -0.1231E-05
     -8.480 -0.6528E-03 -0.9070E-05 -0.2229E-05
     -8.415 -0.5305E-03 -0.7616E-05 -0.1866E-05
     -8.351  0.9785E-03  0.1191E-04  0.2964E-05
     -8.286  0.4505E-02  0.5475E-04  0.1363E-04
     -8.221  0.8818E-02  0.9489E-04  0.2392E-04
     -8.156  0.1075E-01  0.7706E-04  0.2051E-04
     -8.091  0.8343E-02 -0.1190E-04 -0.1473E-06
     -8.026  0.5061E-02 -0.2701E-04 -0.4544E-05
     -7.961  0.9612E-02  0.3477E-03  0.8062E-04
     -7.896  0.2838E-01  0.1337E-02  0.3070E-03
     -7.832  0.5563E-01  0.2661E-02  0.6078E-03
     -7.767  0.7384E-01  0.3524E-02  0.7930E-03
     -7.702  0.6880E-01  0.3282E-02  0.7040E-03
     -7.637  0.4407E-01  0.2111E-02  0.3848E-03
     -7.572  0.1680E-01  0.7974E-03  0.7433E-04
     -7.507  0.9354E-03 -0.5726E-04  0.3780E-04
     -7.442 -0.1859E-02 -0.4207E-03  0.3780E-03
     -7.377  0.2427E-02 -0.4876E-03  0.9401E-03
     -7.313  0.9081E-02 -0.1493E-03  0.1471E-02
     -7.248  0.1955E-01  0.1093E-02  0.2035E-02
     -7.183  0.3929E-01  0.3565E-02  0.3225E-02
     -7.118  0.7060E-01  0.6782E-02  0.5800E-02
     -7.053  0.1079E+00  0.9706E-02  0.9980E-02
     -6.988  0.1397E+00  0.1168E-01  0.1474E-01
     -6.923  0.1532E+00  0.1262E-01  0.1756E-01
     -6.858  0.1402E+00  0.1223E-01  0.1606E-01
     -6.794  0.1026E+00  0.1001E-01  0.1222E-01
     -6.729  0.5512E-01  0.6193E-02  0.1530E-01
     -6.664  0.1644E-01  0.2210E-02  0.3805E-01
     -6.599 -0.4965E-03 -0.1432E-03  0.8899E-01
     -6.534  0.1052E-01  0.7528E-03  0.1714E+00
     -6.469  0.5290E-01  0.6306E-02  0.2927E+00
     -6.404  0.1248E+00  0.1705E-01  0.4692E+00
     -6.339  0.2109E+00  0.3115E-01  0.7076E+00
     -6.274  0.2800E+00  0.4375E-01  0.9679E+00
     -6.210  0.2984E+00  0.4920E-01  0.1164E+01
     -6.145  0.2567E+00  0.4579E-01  0.1241E+01
     -6.080  0.1861E+00  0.3846E-01  0.1245E+01
     -6.015  0.1377E+00  0.3497E-01  0.1285E+01
     -5.950  0.1373E+00  0.3861E-01  0.1405E+01
     -5.885  0.1639E+00  0.4545E-01  0.1545E+01
     -5.820  0.1761E+00  0.4899E-01  0.1616E+01
     -5.755  0.1539E+00  0.4694E-01  0.1606E+01
     -5.691  0.1115E+00  0.4356E-01  0.1594E+01
     -5.626  0.7579E-01  0.4514E-01  0.1672E+01
     -5.561  0.5965E-01  0.5299E-01  0.1825E+01
     -5.496  0.5798E-01  0.6152E-01  0.1926E+01
     -5.431  0.6038E-01  0.6389E-01  0.1866E+01
     -5.366  0.6151E-01  0.5887E-01  0.1672E+01
     -5.301  0.6034E-01  0.5147E-01  0.1482E+01
     -5.236  0.5558E-01  0.4691E-01  0.1401E+01
     -5.172  0.4561E-01  0.4511E-01  0.1378E+01
     -5.107  0.3165E-01  0.4246E-01  0.1282E+01
     -5.042  0.1863E-01  0.3893E-01  0.1081E+01
     -4.977  0.1205E-01  0.4085E-01  0.9153E+00
     -4.912  0.1387E-01  0.5418E-01  0.9288E+00
     -4.847  0.2087E-01  0.7573E-01  0.1087E+01
     -4.782  0.2720E-01  0.9379E-01  0.1213E+01
     -4.717  0.2966E-01  0.9880E-01  0.1188E+01
     -4.653  0.3043E-01  0.9274E-01  0.1082E+01
     -4.588  0.3346E-01  0.8619E-01  0.1064E+01
     -4.523  0.3838E-01  0.8663E-01  0.1212E+01
     -4.458  0.3998E-01  0.9070E-01  0.1437E+01
     -4.393  0.3438E-01  0.8840E-01  0.1559E+01