  96  96   1   0
  0.2912004E+02  0.1028768E-08  0.1028768E-08  0.3049984E-08  0.0000000E+00
  1.000000000000000E-004
  CAR 
 unknown system                          
     15.93516009    -11.49840463  301     -1.26551704      1.00000000
    -11.498  0.0000E+00  0.0000E+00
    -11.407  0.0000E+00  0.0000E+00
    -11.316  0.0000E+00  0.0000E+00
    -11.224  0.0000E+00  0.0000E+00
    -11.133 -0.6423E-33 -0.5873E-34
    -11.041 -0.2490E-26 -0.2277E-27
    -10.950 -0.1788E-20 -0.1635E-21
    -10.858 -0.2371E-15 -0.2168E-16
    -10.767 -0.5554E-11 -0.5079E-12
    -10.675 -0.2413E-07 -0.2207E-08
    -10.584 -0.1845E-04 -0.1689E-05
    -10.493 -0.2330E-02 -0.2148E-03
    -10.401 -0.3876E-01 -0.3759E-02
    -10.310  0.5043E-01  0.8529E-03
    -10.218  0.9311E+00  0.8600E-01
    -10.127  0.4607E+01  0.5073E+00
    -10.035  0.3933E+01  0.8670E+00
     -9.944  0.6622E+00  0.9275E+00
     -9.852  0.5330E+01  0.1415E+01
     -9.761  0.6571E+01  0.2016E+01
     -9.670  0.4088E+01  0.2390E+01
     -9.578  0.8563E+00  0.2468E+01
     -9.487  0.5069E+01  0.2931E+01
     -9.395  0.1229E+02  0.4055E+01
     -9.304  0.8776E+01  0.4858E+01
     -9.212  0.7310E+01  0.5526E+01
     -9.121  0.1216E+02  0.6638E+01
     -9.029  0.4441E+01  0.7044E+01
     -8.938 -0.1188E+01  0.6935E+01
     -8.846  0.3936E+01  0.7295E+01
     -8.755  0.1936E+02  0.9065E+01
     -8.664  0.1639E+02  0.1056E+02
     -8.572  0.7610E+01  0.1126E+02
     -8.481  0.9379E+01  0.1212E+02
     -8.389  0.6316E+01  0.1270E+02
     -8.298  0.7042E+01  0.1334E+02
     -8.206  0.1242E+02  0.1447E+02
     -8.115  0.2028E+02  0.1633E+02
     -8.023  0.1839E+02  0.1801E+02
     -7.932  0.4692E+01  0.1844E+02
     -7.841  0.2054E+02  0.2032E+02
     -7.749  0.1978E+02  0.2213E+02
     -7.658  0.1902E+01  0.2230E+02
     -7.566  0.7837E+01  0.2302E+02
     -7.475  0.1690E+02  0.2456E+02
     -7.383  0.1467E+02  0.2591E+02
     -7.292  0.2504E+02  0.2820E+02
     -7.200  0.2940E+02  0.3088E+02
     -7.109  0.1985E+02  0.3270E+02
     -7.018  0.1836E+02  0.3438E+02
     -6.926  0.2060E+02  0.3626E+02
     -6.835  0.5333E+01  0.3675E+02
     -6.743  0.2900E+02  0.3940E+02
     -6.652  0.3729E+02  0.4281E+02
     -6.560  0.3089E+02  0.4563E+02
     -6.469  0.2164E+02  0.4761E+02
     -6.377  0.3728E+02  0.5102E+02
     -6.286  0.3807E+02  0.5450E+02
     -6.195  0.4802E+02  0.5890E+02
     -6.103  0.8291E+02  0.6648E+02
     -6.012  0.6032E+02  0.7199E+02
     -5.920  0.7908E+02  0.7922E+02
     -5.829  0.1025E+03  0.8860E+02
     -5.737  0.1200E+03  0.9957E+02
     -5.646  0.1167E+03  0.1102E+03
     -5.554  0.9574E+02  0.1190E+03
     -5.463  0.1227E+03  0.1302E+03
     -5.372  0.2107E+03  0.1495E+03
     -5.280  0.2306E+03  0.1706E+03
     -5.189  0.2266E+03  0.1913E+03
     -5.097  0.1826E+03  0.2080E+03
     -5.006  0.1579E+03  0.2224E+03
     -4.914  0.1972E+03  0.2405E+03
     -4.823  0.1871E+03  0.2576E+03
     -4.731  0.2063E+03  0.2764E+03
     -4.640  0.2491E+03  0.2992E+03
     -4.549  0.2583E+03  0.3228E+03
     -4.457  0.2667E+03  0.3472E+03
     -4.366  0.2749E+03  0.3724E+03
     -4.274  0.2921E+03  0.3991E+03
     -4.183  0.3728E+03  0.4332E+03
     -4.091  0.4372E+03  0.4731E+03
     -4.000  0.4174E+03  0.5113E+03
     -3.908  0.4330E+03  0.5509E+03
     -3.817  0.3949E+03  0.5870E+03
     -3.726  0.2483E+03  0.6097E+03
     -3.634  0.2891E+03  0.6362E+03
     -3.543  0.4089E+03  0.6736E+03
     -3.451  0.3283E+03  0.7036E+03
     -3.360  0.3137E+03  0.7323E+03
     -3.268  0.4154E+03  0.7702E+03
     -3.177  0.3870E+03  0.8056E+03
     -3.085  0.3494E+03  0.8376E+03
     -2.994  0.4410E+03  0.8779E+03
     -2.903  0.5685E+03  0.9299E+03
     -2.811  0.5350E+03  0.9788E+03
     -2.720  0.2566E+03  0.1002E+04
     -2.628  0.7105E+02  0.1009E+04
     -2.537  0.4352E+02  0.1013E+04
     -2.445  0.4616E+02  0.1017E+04
     -2.354  0.3019E+02  0.1020E+04
     -2.262  0.3601E+02  0.1023E+04
     -2.171  0.4515E+02  0.1027E+04
     -2.080  0.4975E+02  0.1032E+04
     -1.988  0.1476E+02  0.1033E+04
     -1.897  0.2347E+01  0.1033E+04
     -1.805  0.1669E+02  0.1035E+04
     -1.714  0.5666E+02  0.1040E+04
     -1.622  0.6167E+02  0.1046E+04
     -1.531  0.4202E+02  0.1049E+04
     -1.439  0.2682E+02  0.1052E+04
     -1.348  0.2109E+02  0.1054E+04
     -1.257  0.2746E+02  0.1056E+04
     -1.165  0.3581E+02  0.1060E+04
     -1.074  0.2392E+02  0.1062E+04
     -0.982  0.1775E+02  0.1063E+04
     -0.891  0.1199E+02  0.1065E+04
     -0.799  0.3810E+02  0.1068E+04
     -0.708  0.5523E+02  0.1073E+04
     -0.616  0.4488E+02  0.1077E+04
     -0.525  0.1956E+02  0.1079E+04
     -0.434  0.2711E+02  0.1081E+04
     -0.342  0.3825E+02  0.1085E+04
     -0.251  0.1855E+02  0.1087E+04
     -0.159  0.1645E+02  0.1088E+04
     -0.068  0.3622E+02  0.1091E+04
      0.024  0.3647E+02  0.1095E+04
      0.115  0.2292E+02  0.1097E+04
      0.207  0.2822E+02  0.1099E+04
      0.298  0.2350E+02  0.1102E+04
      0.389  0.1800E+02  0.1103E+04
      0.481  0.1821E+02  0.1105E+04
      0.572  0.3567E+02  0.1108E+04
      0.664  0.6027E+02  0.1114E+04
      0.755  0.3901E+02  0.1117E+04
      0.847  0.1435E+02  0.1119E+04
      0.938  0.2069E+02  0.1120E+04
      1.030  0.2400E+02  0.1123E+04
      1.121  0.2984E+02  0.1125E+04
      1.212  0.2123E+02  0.1127E+04
      1.304  0.1341E+02  0.1129E+04
      1.395  0.1829E+02  0.1130E+04
      1.487  0.2499E+02  0.1133E+04
      1.578  0.1648E+02  0.1134E+04
      1.670  0.3769E+02  0.1137E+04
      1.761  0.3983E+02  0.1141E+04
      1.853  0.5095E+01  0.1142E+04
      1.944  0.9768E+01  0.1142E+04
      2.035  0.3594E+02  0.1146E+04
      2.127  0.2585E+02  0.1148E+04
      2.218  0.2020E+02  0.1150E+04
      2.310  0.1389E+02  0.1151E+04
      2.401  0.1811E+02  0.1153E+04
      2.493  0.1618E+02  0.1154E+04
      2.584  0.2732E+00  0.1154E+04
      2.676  0.1112E+02  0.1155E+04
      2.767  0.3383E+02  0.1159E+04
      2.858  0.3153E+02  0.1161E+04
      2.950  0.9772E+01  0.1162E+04
      3.041  0.1160E+02  0.1163E+04
      3.133  0.4284E+02  0.1167E+04
      3.224  0.5188E+02  0.1172E+04
      3.316  0.2967E+02  0.1175E+04
      3.407  0.2357E+02  0.1177E+04
      3.499  0.5625E+02  0.1182E+04
      3.590  0.3587E+02  0.1185E+04
      3.682  0.1488E+02  0.1187E+04
      3.773  0.1812E+02  0.1188E+04
      3.864  0.3857E+02  0.1192E+04
      3.956  0.5935E+02  0.1197E+04
      4.047  0.4769E+02  0.1202E+04
      4.139  0.2851E+02  0.1204E+04
      4.230  0.5100E+02  0.1209E+04
      4.322  0.4937E+02  0.1213E+04
      4.413  0.1615E+02  0.1215E+04
      4.505  0.1942E+02  0.1217E+04
      4.596  0.7969E+02  0.1224E+04
      4.687  0.7752E+02  0.1231E+04
      4.779  0.3462E+02  0.1234E+04
      4.870  0.2663E+02  0.1237E+04
      4.962  0.2754E+02  0.1239E+04
      5.053  0.4561E+02  0.1243E+04
      5.145  0.4952E+02  0.1248E+04
      5.236  0.6263E+02  0.1254E+04
      5.328  0.9240E+02  0.1262E+04
      5.419  0.5106E+02  0.1267E+04
      5.510  0.1787E+02  0.1268E+04
      5.602  0.5390E+02  0.1273E+04
      5.693  0.4876E+02  0.1278E+04
      5.785  0.2938E+02  0.1280E+04
      5.876  0.1281E+02  0.1282E+04
      5.968  0.5936E+02  0.1287E+04
      6.059  0.5850E+02  0.1292E+04
      6.151  0.3837E+02  0.1296E+04
      6.242  0.6683E+02  0.1302E+04
      6.333  0.6432E+02  0.1308E+04
      6.425  0.4429E+02  0.1312E+04
      6.516  0.2191E+02  0.1314E+04
      6.608  0.1618E+02  0.1315E+04
      6.699  0.5057E+02  0.1320E+04
      6.791  0.7536E+02  0.1327E+04
      6.882  0.8168E+02  0.1334E+04
      6.974  0.4884E+02  0.1339E+04
      7.065  0.5490E+02  0.1344E+04
      7.156  0.5135E+02  0.1349E+04
      7.248  0.5956E+02  0.1354E+04
      7.339  0.7227E+02  0.1361E+04
      7.431  0.5782E+02  0.1366E+04
      7.522  0.4296E+02  0.1370E+04
      7.614  0.5447E+02  0.1375E+04
      7.705  0.8098E+02  0.1382E+04
      7.797  0.5927E+02  0.1388E+04
      7.888  0.3059E+02  0.1390E+04
      7.979  0.5328E+02  0.1395E+04
      8.071  0.6220E+02  0.1401E+04
      8.162  0.5581E+02  0.1406E+04
      8.254  0.1109E+03  0.1416E+04
      8.345  0.7348E+02  0.1423E+04
      8.437  0.4646E+02  0.1427E+04
      8.528  0.5308E+02  0.1432E+04
      8.620  0.5824E+02  0.1437E+04
      8.711  0.4735E+02  0.1442E+04
      8.802  0.3032E+02  0.1444E+04
      8.894  0.7625E+02  0.1451E+04
      8.985  0.6614E+02  0.1458E+04
      9.077  0.3481E+02  0.1461E+04
      9.168  0.3942E+02  0.1464E+04
      9.260  0.6698E+02  0.1470E+04
      9.351  0.1008E+03  0.1480E+04
      9.443  0.8499E+02  0.1487E+04
      9.534  0.7796E+02  0.1495E+04
      9.625  0.6772E+02  0.1501E+04
      9.717  0.7539E+02  0.1508E+04
      9.808  0.1021E+03  0.1517E+04
      9.900  0.7395E+02  0.1524E+04
      9.991  0.6937E+02  0.1530E+04
     10.083  0.3908E+02  0.1534E+04
     10.174  0.5004E+02  0.1538E+04
     10.266  0.7246E+02  0.1545E+04
     10.357  0.8043E+02  0.1552E+04
     10.448  0.4439E+02  0.1556E+04
     10.540  0.5536E+02  0.1561E+04
     10.631  0.5760E+02  0.1567E+04
     10.723  0.4572E+02  0.1571E+04
     10.814  0.5552E+02  0.1576E+04
     10.906  0.9893E+02  0.1585E+04
     10.997  0.8257E+02  0.1592E+04
     11.089  0.8030E+02  0.1600E+04
     11.180  0.9590E+02  0.1609E+04
     11.271  0.8824E+02  0.1617E+04
     11.363  0.8167E+02  0.1624E+04
     11.454  0.7405E+02  0.1631E+04
     11.546  0.5769E+02  0.1636E+04
     11.637  0.5878E+02  0.1642E+04
     11.729  0.5466E+02  0.1647E+04
     11.820  0.7490E+02  0.1653E+04
     11.912  0.6377E+02  0.1659E+04
     12.003  0.4859E+02  0.1664E+04
     12.094  0.7985E+02  0.1671E+04
     12.186  0.9597E+02  0.1680E+04
     12.277  0.1010E+03  0.1689E+04
     12.369  0.1036E+03  0.1698E+04
     12.460  0.8265E+02  0.1706E+04
     12.552  0.6036E+02  0.1712E+04
     12.643  0.8121E+02  0.1719E+04
     12.735  0.7564E+02  0.1726E+04
     12.826  0.7399E+02  0.1733E+04
     12.917  0.6991E+02  0.1739E+04
     13.009  0.7146E+02  0.1746E+04
     13.100  0.8926E+02  0.1754E+04
     13.192  0.7779E+02  0.1761E+04
     13.283  0.8163E+02  0.1768E+04
     13.375  0.5511E+02  0.1773E+04
     13.466  0.3145E+02  0.1776E+04
     13.558  0.8386E+02  0.1784E+04
     13.649  0.1092E+03  0.1794E+04
     13.740  0.7623E+02  0.1801E+04
     13.832  0.8408E+02  0.1809E+04
     13.923  0.9459E+02  0.1817E+04
     14.015  0.5664E+02  0.1822E+04
     14.106  0.4481E+02  0.1826E+04
     14.198  0.5342E+02  0.1831E+04
     14.289  0.5189E+02  0.1836E+04
     14.381  0.3364E+02  0.1839E+04
     14.472  0.7664E+01  0.1840E+04
     14.563  0.2475E+00  0.1840E+04
     14.655  0.3501E+00  0.1840E+04
     14.746  0.8784E+00  0.1840E+04
     14.838  0.1558E+00  0.1840E+04
     14.929 -0.3571E-01  0.1840E+04
     15.021 -0.2317E-02  0.1840E+04
     15.112 -0.1844E-04  0.1840E+04
     15.204 -0.2413E-07  0.1840E+04
     15.295 -0.5554E-11  0.1840E+04
     15.386 -0.3035E-15  0.1840E+04
     15.478  0.0000E+00  0.1840E+04
     15.569  0.0000E+00  0.1840E+04
     15.661  0.0000E+00  0.1840E+04
     15.752  0.0000E+00  0.1840E+04
     15.844  0.0000E+00  0.1840E+04
     15.935  0.0000E+00  0.1840E+04
     15.93516009    -11.49840463  301     -1.26551704      1.00000000
    -11.498  0.0000E+00  0.0000E+00  0.0000E+00
    -11.407  0.0000E+00  0.0000E+00  0.0000E+00
    -11.316  0.0000E+00  0.0000E+00  0.0000E+00
    -11.224  0.0000E+00  0.0000E+00  0.0000E+00
    -11.133 -0.8746E-36 -0.1096E-36 -0.3656E-40
    -11.041 -0.3391E-29 -0.4251E-30 -0.1417E-33
    -10.950 -0.2435E-23 -0.3053E-24 -0.1018E-27
    -10.858 -0.3228E-18 -0.4047E-19 -0.1350E-22
    -10.767 -0.7563E-14 -0.9482E-15 -0.3163E-18
    -10.675 -0.3286E-10 -0.4120E-11 -0.1380E-14
    -10.584 -0.2512E-07 -0.3150E-08 -0.1097E-11
    -10.493 -0.3172E-05 -0.3979E-06 -0.1991E-09
    -10.401 -0.5271E-04 -0.6660E-05 -0.1833E-07
    -10.310  0.7078E-04  0.7059E-05 -0.5652E-06
    -10.218  0.1268E-02  0.1590E-03  0.8460E-07
    -10.127  0.6191E-02  0.8468E-03  0.2236E-04
    -10.035  0.5287E-02  0.7227E-03  0.1853E-04
     -9.944  0.8638E-03  0.1400E-03  0.1126E-04
     -9.852  0.6930E-02  0.1135E-02  0.9570E-04
     -9.761  0.8335E-02  0.1442E-02  0.1473E-03
     -9.670  0.5484E-02  0.9314E-03  0.1019E-03
     -9.578  0.4850E-02  0.4044E-03  0.4525E-05
     -9.487  0.2284E-01  0.2325E-02  0.1253E-03
     -9.395  0.2618E-01  0.3879E-02  0.5353E-03
     -9.304  0.1439E-01  0.2653E-02  0.4500E-03
     -9.212  0.2781E-01  0.3774E-02  0.4336E-03
     -9.121  0.3550E-01  0.5567E-02  0.8668E-03
     -9.029  0.1442E-01  0.2221E-02  0.3262E-03
     -8.938 -0.3353E-02 -0.6178E-03 -0.1299E-03
     -8.846  0.1009E-01  0.2067E-02  0.5010E-03
     -8.755  0.5440E-01  0.1087E-01  0.2576E-02
     -8.664  0.3131E-01  0.7049E-02  0.2194E-02
     -8.572  0.2642E-01  0.4085E-02  0.1484E-02
     -8.481  0.5594E-01  0.5484E-02  0.2274E-02
     -8.389  0.2231E-01  0.2126E-02  0.1346E-02
     -8.298  0.2086E-01  0.2996E-02  0.1505E-02
     -8.206  0.6819E-01  0.9167E-02  0.3629E-02
     -8.115  0.8960E-01  0.1627E-01  0.6719E-02
     -8.023  0.4216E-01  0.1094E-01  0.5489E-02
     -7.932  0.3541E-03  0.1220E-02  0.1094E-02
     -7.841  0.6716E-01  0.1315E-01  0.7291E-02
     -7.749  0.7884E-01  0.1471E-01  0.7497E-02
     -7.658  0.1508E-01  0.2120E-02  0.6011E-03
     -7.566  0.3890E-01  0.7846E-02  0.3933E-02
     -7.475  0.4558E-01  0.1435E-01  0.1148E-01
     -7.383  0.5544E-01  0.1027E-01  0.1457E-01
     -7.292  0.1106E+00  0.2176E-01  0.2350E-01
     -7.200  0.9982E-01  0.2292E-01  0.1841E-01
     -7.109  0.7175E-01  0.9950E-02  0.1732E-01
     -7.018  0.7178E-01  0.1143E-01  0.2285E-01
     -6.926  0.5152E-01  0.1381E-01  0.1852E-01
     -6.835  0.1270E-01  0.4725E-02  0.6361E-02
     -6.743  0.1153E+00  0.2894E-01  0.4268E-01
     -6.652  0.1317E+00  0.3674E-01  0.5057E-01
     -6.560  0.1061E+00  0.3105E-01  0.5355E-01
     -6.469  0.5750E-01  0.1226E-01  0.4534E-01
     -6.377  0.5057E-01  0.1681E-01  0.6056E-01
     -6.286  0.9774E-01  0.2027E-01  0.6499E-01
     -6.195  0.1391E+00  0.3396E-01  0.1172E+00
     -6.103  0.1510E+00  0.6348E-01  0.2016E+00
     -6.012  0.6546E-01  0.2725E-01  0.1315E+00
     -5.920  0.1021E+00  0.2971E-01  0.1817E+00
     -5.829  0.1494E+00  0.5026E-01  0.2322E+00
     -5.737  0.1212E+00  0.5224E-01  0.3646E+00
     -5.646  0.1121E+00  0.5188E-01  0.3818E+00
     -5.554  0.1162E+00  0.4900E-01  0.3145E+00
     -5.463  0.9788E-01  0.4165E-01  0.4112E+00
     -5.372  0.1687E+00  0.5663E-01  0.9484E+00
     -5.280  0.1562E+00  0.5998E-01  0.1066E+01
     -5.189  0.9143E-01  0.5097E-01  0.1101E+01
     -5.097  0.5003E-01  0.3692E-01  0.1009E+01
     -5.006  0.3250E-01  0.3356E-01  0.1025E+01
     -4.914  0.3441E-01  0.4812E-01  0.1516E+01
     -4.823  0.2680E-01  0.4420E-01  0.1555E+01
     -4.731  0.2045E-01  0.4540E-01  0.1623E+01
     -4.640  0.2108E-01  0.4577E-01  0.1932E+01
     -4.549  0.2610E-01  0.4241E-01  0.1940E+01
     -4.457  0.3429E-01  0.4118E-01  0.1815E+01
     -4.366  0.2648E-01  0.3074E-01  0.1765E+01
     -4.274  0.2703E-01  0.3589E-01  0.2076E+01
     -4.183  0.4022E-01  0.5037E-01  0.3089E+01
     -4.091  0.4606E-01  0.7242E-01  0.3801E+01
     -4.000  0.5922E-01  0.9374E-01  0.4381E+01
     -3.908  0.4696E-01  0.8586E-01  0.5861E+01
     -3.817  0.4508E-01  0.9170E-01  0.5242E+01
     -3.726  0.3572E-01  0.7521E-01  0.3084E+01
     -3.634  0.4733E-01  0.9071E-01  0.3285E+01
     -3.543  0.4482E-01  0.1001E+00  0.4266E+01
     -3.451  0.3165E-01  0.5776E-01  0.3204E+01
     -3.360  0.2592E-01  0.5026E-01  0.3424E+01
     -3.268  0.3257E-01  0.7395E-01  0.5120E+01
     -3.177  0.3198E-01  0.4667E-01  0.4716E+01
     -3.085  0.2829E-01  0.3980E-01  0.4121E+01
     -2.994  0.3496E-01  0.4526E-01  0.5635E+01
     -2.903  0.4577E-01  0.3513E-01  0.6313E+01
     -2.811  0.3705E-01  0.2749E-01  0.5287E+01
     -2.720  0.2449E-01  0.2448E-01  0.2852E+01
     -2.628  0.1538E-01  0.1710E-01  0.1357E+01
     -2.537  0.5317E-01  0.3254E-01  0.5401E+00
     -2.445  0.6345E-01  0.4714E-01  0.3986E+00
     -2.354  0.1878E-01  0.2514E-01  0.2347E+00
     -2.262  0.2515E-01  0.1873E-01  0.1724E+00
     -2.171  0.5132E-01  0.3082E-01  0.2769E+00
     -2.080  0.5110E-01  0.4833E-01  0.3895E+00
     -1.988  0.1957E-01  0.1654E-01  0.9384E-01
     -1.897  0.2893E-02  0.1565E-04  0.5360E-02
     -1.805  0.2200E-01  0.4627E-01  0.9793E-01
     -1.714  0.1069E+00  0.1278E+00  0.3656E+00
     -1.622  0.1116E+00  0.1024E+00  0.3131E+00
     -1.531  0.3422E-01  0.3913E-01  0.1439E+00
     -1.439  0.1540E-01  0.3023E-01  0.7410E-01
     -1.348  0.3576E-01  0.6144E-01  0.7112E-01
     -1.257  0.2962E-01  0.6085E-01  0.1476E+00
     -1.165  0.3244E-01  0.7780E-01  0.1873E+00
     -1.074  0.2948E-01  0.4927E-01  0.9550E-01
     -0.982  0.2600E-01  0.3438E-01  0.6538E-01
     -0.891  0.2296E-01  0.2612E-01  0.4525E-01
     -0.799  0.7625E-01  0.1140E+00  0.1438E+00
     -0.708  0.9386E-01  0.1741E+00  0.2061E+00
     -0.616  0.7159E-01  0.1454E+00  0.1955E+00
     -0.525  0.1994E-01  0.7866E-01  0.6530E-01
     -0.434  0.1357E-01  0.6533E-01  0.4529E-01
     -0.342  0.3632E-01  0.5370E-01  0.8419E-01
     -0.251  0.2892E-01  0.3786E-01  0.5865E-01
     -0.159  0.2550E-01  0.4495E-01  0.5624E-01
     -0.068  0.3896E-01  0.9863E-01  0.1280E+00
      0.024  0.3063E-01  0.1246E+00  0.1112E+00
      0.115  0.9343E-02  0.8889E-01  0.4641E-01
      0.207  0.2694E-01  0.1175E+00  0.7022E-01
      0.298  0.3846E-01  0.1014E+00  0.7365E-01
      0.389  0.3915E-01  0.6861E-01  0.5967E-01
      0.481  0.1084E-01  0.7125E-01  0.5159E-01
      0.572  0.3407E-01  0.1298E+00  0.1076E+00
      0.664  0.8396E-01  0.2296E+00  0.1613E+00
      0.755  0.4964E-01  0.1527E+00  0.1101E+00
      0.847  0.1178E-01  0.5409E-01  0.4178E-01
      0.938  0.1078E-01  0.4623E-01  0.3104E-01
      1.030  0.1341E-01  0.4547E-01  0.4053E-01
      1.121  0.1540E-01  0.9391E-01  0.7058E-01
      1.212  0.6318E-02  0.8980E-01  0.5424E-01
      1.304  0.6269E-02  0.6036E-01  0.2908E-01
      1.395  0.1233E-01  0.6502E-01  0.4456E-01
      1.487  0.1889E-01  0.6357E-01  0.6173E-01
      1.578  0.7747E-02  0.4891E-01  0.3750E-01
      1.670  0.3692E-01  0.1588E+00  0.1049E+00
      1.761  0.4279E-01  0.1663E+00  0.1099E+00
      1.853  0.8192E-02  0.2043E-01  0.1345E-01
      1.944  0.3131E-02  0.2407E-01  0.1432E-01
      2.035  0.1897E-01  0.9097E-01  0.6106E-01
      2.127  0.1818E-01  0.7146E-01  0.4941E-01
      2.218  0.1337E-01  0.7698E-01  0.5058E-01
      2.310  0.4823E-02  0.5507E-01  0.3589E-01
      2.401  0.8764E-02  0.5518E-01  0.3693E-01
      2.493  0.9168E-02  0.4909E-01  0.3367E-01
      2.584 -0.3906E-03  0.8698E-03  0.5947E-03
      2.676  0.1313E-01  0.2742E-01  0.2314E-01
      2.767  0.3391E-01  0.8502E-01  0.6191E-01
      2.858  0.3099E-01  0.6496E-01  0.4908E-01
      2.950  0.1402E-01  0.3113E-02  0.1172E-01
      3.041  0.1148E-01  0.1305E-01  0.1555E-01
      3.133  0.3404E-01  0.8153E-01  0.5887E-01
      3.224  0.3943E-01  0.1063E+00  0.8493E-01
      3.316  0.3396E-01  0.5180E-01  0.5426E-01
      3.407  0.4776E-01  0.3542E-01  0.4116E-01
      3.499  0.1062E+00  0.9287E-01  0.9949E-01
      3.590  0.8716E-01  0.5420E-01  0.7154E-01
      3.682  0.4177E-01  0.1406E-01  0.3064E-01
      3.773  0.2227E-01  0.3411E-01  0.2284E-01
      3.864  0.7571E-01  0.6467E-01  0.6079E-01
      3.956  0.1284E+00  0.8146E-01  0.9935E-01
      4.047  0.9604E-01  0.6947E-01  0.8088E-01
      4.139  0.7259E-01  0.3451E-01  0.4376E-01
      4.230  0.1189E+00  0.8132E-01  0.8112E-01
      4.322  0.1134E+00  0.9491E-01  0.9015E-01
      4.413  0.5853E-01  0.3480E-01  0.3434E-01
      4.505  0.4549E-01  0.4348E-01  0.4231E-01
      4.596  0.1606E+00  0.1412E+00  0.1460E+00
      4.687  0.1666E+00  0.1286E+00  0.1309E+00
      4.779  0.7676E-01  0.4874E-01  0.4676E-01
      4.870  0.2154E-01  0.2600E-01  0.2289E-01
      4.962  0.5277E-01  0.6632E-01  0.3962E-01
      5.053  0.6936E-01  0.1266E+00  0.6420E-01
      5.145  0.5752E-01  0.1411E+00  0.9550E-01
      5.236  0.9361E-01  0.1447E+00  0.1182E+00
      5.328  0.1275E+00  0.1781E+00  0.1135E+00
      5.419  0.4351E-01  0.8436E-01  0.5253E-01
      5.510  0.1490E-01  0.3753E-01  0.2304E-01
      5.602  0.7508E-01  0.1228E+00  0.8310E-01
      5.693  0.5166E-01  0.9809E-01  0.7115E-01
      5.785  0.1600E-01  0.4087E-01  0.2459E-01
      5.876  0.8341E-02  0.2676E-01  0.1503E-01
      5.968  0.4370E-01  0.1281E+00  0.8303E-01
      6.059  0.5510E-01  0.1114E+00  0.7719E-01
      6.151  0.8396E-01  0.7945E-01  0.4935E-01
      6.242  0.7229E-01  0.1102E+00  0.7585E-01
      6.333  0.9303E-01  0.1173E+00  0.8050E-01
      6.425  0.6016E-01  0.9076E-01  0.5294E-01
      6.516  0.8124E-02  0.4648E-01  0.2201E-01
      6.608  0.2738E-01  0.2156E-01  0.1972E-01
      6.699  0.7571E-01  0.8680E-01  0.6424E-01
      6.791  0.1080E+00  0.1496E+00  0.8257E-01
      6.882  0.9360E-01  0.1542E+00  0.7394E-01
      6.974  0.5033E-01  0.6994E-01  0.4329E-01
      7.065  0.4646E-01  0.7004E-01  0.5017E-01
      7.156  0.5531E-01  0.1047E+00  0.6569E-01
      7.248  0.4857E-01  0.1408E+00  0.6842E-01
      7.339  0.3463E-01  0.1369E+00  0.6738E-01
      7.431  0.4511E-01  0.6589E-01  0.5390E-01
      7.522  0.3242E-01  0.5811E-01  0.7303E-01
      7.614  0.3701E-01  0.1024E+00  0.7639E-01
      7.705  0.8529E-01  0.1405E+00  0.9460E-01
      7.797  0.9302E-01  0.9210E-01  0.8038E-01
      7.888  0.2291E-01  0.4379E-01  0.3643E-01
      7.979  0.3089E-01  0.8981E-01  0.7797E-01
      8.071  0.2202E-01  0.1131E+00  0.9243E-01
      8.162  0.3463E-01  0.7655E-01  0.6137E-01
      8.254  0.1209E+00  0.1853E+00  0.1344E+00
      8.345  0.6669E-01  0.1217E+00  0.7884E-01
      8.437  0.3856E-01  0.6708E-01  0.4579E-01
      8.528  0.5638E-01  0.9854E-01  0.7524E-01
      8.620  0.6261E-01  0.1150E+00  0.7982E-01
      8.711  0.5120E-01  0.1123E+00  0.6345E-01
      8.802  0.2608E-01  0.5461E-01  0.2317E-01
      8.894  0.9091E-01  0.1206E+00  0.6986E-01
      8.985  0.7608E-01  0.1083E+00  0.6439E-01
      9.077  0.1398E-01  0.4629E-01  0.2822E-01
      9.168  0.1788E-01  0.5558E-01  0.5822E-01
      9.260  0.2399E-01  0.1204E+00  0.8590E-01
      9.351  0.3704E-01  0.1711E+00  0.9605E-01
      9.443  0.6850E-01  0.1691E+00  0.9042E-01
      9.534  0.7085E-01  0.1066E+00  0.8720E-01
      9.625  0.5827E-01  0.7848E-01  0.7772E-01
      9.717  0.7787E-01  0.1328E+00  0.9104E-01
      9.808  0.1100E+00  0.1962E+00  0.1214E+00
      9.900  0.5661E-01  0.1187E+00  0.8012E-01
      9.991  0.3163E-01  0.1050E+00  0.7011E-01
     10.083  0.3574E-01  0.9200E-01  0.6160E-01
     10.174  0.4923E-01  0.1018E+00  0.7390E-01
     10.266  0.6376E-01  0.1343E+00  0.9991E-01
     10.357  0.4557E-01  0.1369E+00  0.8461E-01
     10.448  0.1780E-01  0.5272E-01  0.3163E-01
     10.540  0.1961E-01  0.4457E-01  0.3736E-01
     10.631  0.2908E-01  0.7298E-01  0.5168E-01
     10.723  0.5305E-01  0.1068E+00  0.4279E-01
     10.814  0.7230E-01  0.1720E+00  0.6778E-01
     10.906  0.8075E-01  0.2004E+00  0.1116E+00
     10.997  0.4636E-01  0.1215E+00  0.8885E-01
     11.089  0.4817E-01  0.1124E+00  0.8392E-01
     11.180  0.5197E-01  0.1400E+00  0.1095E+00
     11.271  0.4634E-01  0.1617E+00  0.1184E+00
     11.363  0.2787E-01  0.1355E+00  0.8158E-01
     11.454  0.4230E-01  0.8923E-01  0.7274E-01
     11.546  0.5307E-01  0.1020E+00  0.7796E-01
     11.637  0.5182E-01  0.1061E+00  0.7364E-01
     11.729  0.2205E-01  0.8159E-01  0.5851E-01
     11.820  0.4219E-01  0.1616E+00  0.7795E-01
     11.912  0.3421E-01  0.1426E+00  0.7022E-01
     12.003  0.2181E-01  0.7961E-01  0.4385E-01
     12.094  0.4279E-01  0.1463E+00  0.7100E-01
     12.186  0.5152E-01  0.2008E+00  0.1009E+00
     12.277  0.6628E-01  0.2168E+00  0.1192E+00
     12.369  0.7381E-01  0.1973E+00  0.1179E+00
     12.460  0.4427E-01  0.9672E-01  0.5667E-01
     12.552  0.1217E-01  0.5266E-01  0.3548E-01
     12.643  0.2665E-01  0.1380E+00  0.7083E-01
     12.735  0.4194E-01  0.1727E+00  0.8112E-01
     12.826  0.4087E-01  0.1534E+00  0.7847E-01
     12.917  0.3697E-01  0.1494E+00  0.6369E-01
     13.009  0.4412E-01  0.1686E+00  0.7129E-01
     13.100  0.2904E-01  0.1283E+00  0.7710E-01
     13.192  0.1930E-01  0.1152E+00  0.7477E-01
     13.283  0.3118E-01  0.2078E+00  0.1077E+00
     13.375  0.3037E-01  0.1151E+00  0.7117E-01
     13.466  0.1613E-01  0.6508E-01  0.3990E-01
     13.558  0.3800E-01  0.1767E+00  0.1116E+00
     13.649  0.3282E-01  0.1751E+00  0.1041E+00
     13.740  0.1955E-01  0.1018E+00  0.7330E-01
     13.832  0.3006E-01  0.2094E+00  0.1119E+00
     13.923  0.4206E-01  0.1928E+00  0.1060E+00
     14.015  0.2184E-01  0.7951E-01  0.5682E-01
     14.106  0.1183E-01  0.5202E-01  0.5509E-01
     14.198  0.2552E-01  0.8807E-01  0.4720E-01
     14.289  0.3541E-01  0.1225E+00  0.3812E-01
     14.381  0.2003E-01  0.9204E-01  0.2733E-01
     14.472  0.2690E-02  0.2202E-01  0.6037E-02
     14.563 -0.2174E-03 -0.1595E-02 -0.1215E-03
     14.655  0.8138E-04  0.2533E-03  0.3073E-03
     14.746  0.2244E-03  0.1763E-02  0.8313E-03
     14.838  0.4009E-04  0.3076E-03  0.1458E-03
     14.929 -0.9239E-05 -0.6961E-04 -0.3319E-04
     15.021 -0.5995E-06 -0.4519E-05 -0.2155E-05
     15.112 -0.4771E-08 -0.3596E-07 -0.1714E-07
     15.204 -0.6243E-11 -0.4706E-10 -0.2244E-10
     15.295 -0.1437E-14 -0.1083E-13 -0.5164E-14
     15.386 -0.7852E-19 -0.5920E-18 -0.2822E-18
     15.478  0.0000E+00  0.0000E+00  0.0000E+00
     15.569  0.0000E+00  0.0000E+00  0.0000E+00
     15.661  0.0000E+00  0.0000E+00  0.0000E+00
     15.752  0.0000E+00  0.0000E+00  0.0000E+00
     15.844  0.0000E+00  0.0000E+00  0.0000E+00
     15.935  0.0000E+00  0.0000E+00  0.0000E+00
     15.93516009    -11.49840463  301     -1.26551704      1.00000000
    -11.498  0.0000E+00  0.0000E+00  0.0000E+00
    -11.407  0.0000E+00  0.0000E+00  0.0000E+00
    -11.316  0.0000E+00  0.0000E+00  0.0000E+00
    -11.224  0.0000E+00  0.0000E+00  0.0000E+00
    -11.133 -0.8746E-36 -0.1096E-36 -0.3655E-40
    -11.041 -0.3391E-29 -0.4251E-30 -0.1417E-33
    -10.950 -0.2435E-23 -0.3053E-24 -0.1018E-27
    -10.858 -0.3228E-18 -0.4047E-19 -0.1349E-22
    -10.767 -0.7563E-14 -0.9482E-15 -0.3162E-18
    -10.675 -0.3286E-10 -0.4120E-11 -0.1379E-14
    -10.584 -0.2512E-07 -0.3150E-08 -0.1096E-11
    -10.493 -0.3173E-05 -0.3979E-06 -0.1991E-09
    -10.401 -0.5272E-04 -0.6660E-05 -0.1833E-07
    -10.310  0.7078E-04  0.7059E-05 -0.5652E-06
    -10.218  0.1268E-02  0.1590E-03  0.8458E-07
    -10.127  0.6191E-02  0.8468E-03  0.2236E-04
    -10.035  0.5287E-02  0.7228E-03  0.1853E-04
     -9.944  0.8638E-03  0.1400E-03  0.1126E-04
     -9.852  0.6930E-02  0.1135E-02  0.9570E-04
     -9.761  0.8336E-02  0.1442E-02  0.1473E-03
     -9.670  0.5484E-02  0.9314E-03  0.1019E-03
     -9.578  0.4850E-02  0.4044E-03  0.4526E-05
     -9.487  0.2284E-01  0.2325E-02  0.1253E-03
     -9.395  0.2618E-01  0.3879E-02  0.5353E-03
     -9.304  0.1439E-01  0.2653E-02  0.4500E-03
     -9.212  0.2781E-01  0.3774E-02  0.4336E-03
     -9.121  0.3550E-01  0.5567E-02  0.8668E-03
     -9.029  0.1442E-01  0.2221E-02  0.3262E-03
     -8.938 -0.3353E-02 -0.6178E-03 -0.1299E-03
     -8.846  0.1009E-01  0.2067E-02  0.5010E-03
     -8.755  0.5440E-01  0.1087E-01  0.2576E-02
     -8.664  0.3131E-01  0.7049E-02  0.2194E-02
     -8.572  0.2642E-01  0.4085E-02  0.1484E-02
     -8.481  0.5595E-01  0.5484E-02  0.2274E-02
     -8.389  0.2231E-01  0.2126E-02  0.1346E-02
     -8.298  0.2086E-01  0.2996E-02  0.1505E-02
     -8.206  0.6820E-01  0.9167E-02  0.3629E-02
     -8.115  0.8961E-01  0.1627E-01  0.6720E-02
     -8.023  0.4216E-01  0.1094E-01  0.5489E-02
     -7.932  0.3544E-03  0.1220E-02  0.1094E-02
     -7.841  0.6716E-01  0.1315E-01  0.7291E-02
     -7.749  0.7884E-01  0.1471E-01  0.7497E-02
     -7.658  0.1508E-01  0.2120E-02  0.6011E-03
     -7.566  0.3890E-01  0.7846E-02  0.3933E-02
     -7.475  0.4558E-01  0.1435E-01  0.1148E-01
     -7.383  0.5544E-01  0.1027E-01  0.1457E-01
     -7.292  0.1106E+00  0.2176E-01  0.2350E-01
     -7.200  0.9982E-01  0.2292E-01  0.1841E-01
     -7.109  0.7175E-01  0.9950E-02  0.1732E-01
     -7.018  0.7178E-01  0.1143E-01  0.2285E-01
     -6.926  0.5152E-01  0.1381E-01  0.1852E-01
     -6.835  0.1270E-01  0.4725E-02  0.6361E-02
     -6.743  0.1153E+00  0.2894E-01  0.4268E-01
     -6.652  0.1317E+00  0.3674E-01  0.5057E-01
     -6.560  0.1061E+00  0.3105E-01  0.5355E-01
     -6.469  0.5750E-01  0.1226E-01  0.4534E-01
     -6.377  0.5057E-01  0.1681E-01  0.6056E-01
     -6.286  0.9774E-01  0.2027E-01  0.6499E-01
     -6.195  0.1391E+00  0.3396E-01  0.1172E+00
     -6.103  0.1510E+00  0.6348E-01  0.2016E+00
     -6.012  0.6546E-01  0.2725E-01  0.1315E+00
     -5.920  0.1021E+00  0.2971E-01  0.1817E+00
     -5.829  0.1494E+00  0.5026E-01  0.2322E+00
     -5.737  0.1212E+00  0.5224E-01  0.3646E+00
     -5.646  0.1121E+00  0.5188E-01  0.3818E+00
     -5.554  0.1162E+00  0.4900E-01  0.3145E+00
     -5.463  0.9789E-01  0.4165E-01  0.4112E+00
     -5.372  0.1687E+00  0.5663E-01  0.9484E+00
     -5.280  0.1562E+00  0.5998E-01  0.1066E+01
     -5.189  0.9143E-01  0.5097E-01  0.1101E+01
     -5.097  0.5003E-01  0.3692E-01  0.1009E+01
     -5.006  0.3250E-01  0.3357E-01  0.1025E+01
     -4.914  0.3441E-01  0.4812E-01  0.1516E+01
     -4.823  0.2680E-01  0.4421E-01  0.1555E+01
     -4.731  0.2045E-01  0.4540E-01  0.1623E+01
     -4.640  0.2108E-01  0.4577E-01  0.1932E+01
     -4.549  0.2610E-01  0.4241E-01  0.1940E+01
     -4.457  0.3429E-01  0.4118E-01  0.1815E+01
     -4.366  0.2648E-01  0.3074E-01  0.1765E+01
     -4.274  0.2703E-01  0.3589E-01  0.2076E+01
     -4.183  0.4022E-01  0.5038E-01  0.3089E+01
     -4.091  0.4606E-01  0.7242E-01  0.3801E+01
     -4.000  0.5922E-01  0.9374E-01  0.4381E+01
     -3.908  0.4696E-01  0.8586E-01  0.5861E+01
     -3.817  0.4508E-01  0.9170E-01  0.5242E+01
     -3.726  0.3572E-01  0.7521E-01  0.3084E+01
     -3.634  0.4733E-01  0.9071E-01  0.3285E+01
     -3.543  0.4482E-01  0.1001E+00  0.4266E+01
     -3.451  0.3165E-01  0.5776E-01  0.3204E+01
     -3.360  0.2592E-01  0.5026E-01  0.3424E+01