  96  96   1   0
  0.3987707E+02  0.1169499E-08  0.1169429E-08  0.3199576E-08  0.0000000E+00
  1.000000000000000E-004
  CAR 
 unknown system                          
     14.03325729     -9.91716384  301     -0.85756365      1.00000000
     -9.917  0.0000E+00  0.0000E+00
     -9.837  0.0000E+00  0.0000E+00
     -9.757  0.0000E+00  0.0000E+00
     -9.678 -0.1815E-30 -0.1449E-31
     -9.598 -0.6723E-25 -0.5368E-26
     -9.518 -0.6885E-20 -0.5497E-21
     -9.438 -0.1944E-15 -0.1552E-16
     -9.358 -0.1456E-11 -0.1162E-12
     -9.278 -0.3042E-08 -0.2430E-09
     -9.199 -0.1705E-05 -0.1363E-06
     -9.119 -0.2496E-03 -0.2006E-04
     -9.039 -0.9041E-02 -0.7418E-03
     -8.959 -0.6999E-01 -0.6329E-02
     -8.879  0.1759E-01 -0.4925E-02
     -8.799  0.1563E+01  0.1199E+00
     -8.720  0.5376E+01  0.5491E+00
     -8.640  0.3856E+01  0.8569E+00
     -8.560  0.4129E+01  0.1187E+01
     -8.480  0.7773E+01  0.1807E+01
     -8.400  0.3987E+01  0.2125E+01
     -8.320  0.3449E+01  0.2401E+01
     -8.241  0.9655E+01  0.3172E+01
     -8.161  0.1321E+02  0.4226E+01
     -8.081  0.6667E+01  0.4758E+01
     -8.001  0.7474E+01  0.5355E+01
     -7.921  0.1243E+02  0.6347E+01
     -7.841  0.7407E+01  0.6938E+01
     -7.762  0.5933E+01  0.7412E+01
     -7.682  0.1349E+02  0.8489E+01
     -7.602  0.1773E+02  0.9904E+01
     -7.522  0.1749E+02  0.1130E+02
     -7.442  0.1196E+02  0.1226E+02
     -7.362  0.1785E+02  0.1368E+02
     -7.283  0.2425E+02  0.1562E+02
     -7.203  0.3144E+02  0.1813E+02
     -7.123  0.3805E+02  0.2116E+02
     -7.043  0.5526E+02  0.2558E+02
     -6.963  0.7496E+02  0.3156E+02
     -6.883  0.8463E+02  0.3832E+02
     -6.804  0.1143E+03  0.4744E+02
     -6.724  0.1503E+03  0.5944E+02
     -6.644  0.1781E+03  0.7366E+02
     -6.564  0.2010E+03  0.8970E+02
     -6.484  0.2348E+03  0.1085E+03
     -6.404  0.2639E+03  0.1295E+03
     -6.325  0.2636E+03  0.1506E+03
     -6.245  0.2562E+03  0.1710E+03
     -6.165  0.2352E+03  0.1898E+03
     -6.085  0.2033E+03  0.2060E+03
     -6.005  0.1803E+03  0.2204E+03
     -5.925  0.1960E+03  0.2361E+03
     -5.846  0.2474E+03  0.2558E+03
     -5.766  0.2382E+03  0.2748E+03
     -5.686  0.2342E+03  0.2935E+03
     -5.606  0.2586E+03  0.3142E+03
     -5.526  0.2361E+03  0.3330E+03
     -5.446  0.2278E+03  0.3512E+03
     -5.367  0.2636E+03  0.3723E+03
     -5.287  0.3361E+03  0.3991E+03
     -5.207  0.3700E+03  0.4286E+03
     -5.127  0.3685E+03  0.4580E+03
     -5.047  0.3345E+03  0.4848E+03
     -4.967  0.3081E+03  0.5094E+03
     -4.888  0.3080E+03  0.5340E+03
     -4.808  0.2853E+03  0.5567E+03
     -4.728  0.2638E+03  0.5778E+03
     -4.648  0.2613E+03  0.5987E+03
     -4.568  0.2931E+03  0.6221E+03
     -4.488  0.3048E+03  0.6464E+03
     -4.409  0.2826E+03  0.6689E+03
     -4.329  0.2658E+03  0.6902E+03
     -4.249  0.2716E+03  0.7118E+03
     -4.169  0.2727E+03  0.7336E+03
     -4.089  0.2720E+03  0.7553E+03
     -4.009  0.2721E+03  0.7771E+03
     -3.930  0.2746E+03  0.7990E+03
     -3.850  0.2632E+03  0.8200E+03
     -3.770  0.2470E+03  0.8397E+03
     -3.690  0.2443E+03  0.8592E+03
     -3.610  0.2543E+03  0.8795E+03
     -3.530  0.2697E+03  0.9011E+03
     -3.451  0.2825E+03  0.9236E+03
     -3.371  0.2711E+03  0.9453E+03
     -3.291  0.2236E+03  0.9631E+03
     -3.211  0.1698E+03  0.9767E+03
     -3.131  0.1339E+03  0.9874E+03
     -3.051  0.1114E+03  0.9962E+03
     -2.972  0.7670E+02  0.1002E+04
     -2.892  0.4279E+02  0.1006E+04
     -2.812  0.2335E+02  0.1008E+04
     -2.732  0.1421E+02  0.1009E+04
     -2.652  0.1509E+02  0.1010E+04
     -2.572  0.2326E+02  0.1012E+04
     -2.493  0.2685E+02  0.1014E+04
     -2.413  0.2395E+02  0.1016E+04
     -2.333  0.2189E+02  0.1018E+04
     -2.253  0.2957E+02  0.1020E+04
     -2.173  0.3540E+02  0.1023E+04
     -2.093  0.2956E+02  0.1025E+04
     -2.014  0.2371E+02  0.1027E+04
     -1.934  0.2619E+02  0.1029E+04
     -1.854  0.2868E+02  0.1031E+04
     -1.774  0.1940E+02  0.1033E+04
     -1.694  0.5541E+01  0.1033E+04
     -1.614  0.1006E+02  0.1034E+04
     -1.535  0.2041E+02  0.1036E+04
     -1.455  0.2899E+02  0.1038E+04
     -1.375  0.3667E+02  0.1041E+04
     -1.295  0.4054E+02  0.1044E+04
     -1.215  0.3466E+02  0.1047E+04
     -1.135  0.2070E+02  0.1049E+04
     -1.056  0.1975E+02  0.1050E+04
     -0.976  0.2408E+02  0.1052E+04
     -0.896  0.2898E+02  0.1055E+04
     -0.816  0.3754E+02  0.1058E+04
     -0.736  0.3080E+02  0.1060E+04
     -0.656  0.1992E+02  0.1062E+04
     -0.576  0.1672E+02  0.1063E+04
     -0.497  0.1765E+02  0.1064E+04
     -0.417  0.3191E+02  0.1067E+04
     -0.337  0.4048E+02  0.1070E+04
     -0.257  0.3119E+02  0.1073E+04
     -0.177  0.3043E+02  0.1075E+04
     -0.097  0.3237E+02  0.1078E+04
     -0.018  0.3282E+02  0.1080E+04
      0.062  0.3232E+02  0.1083E+04
      0.142  0.2966E+02  0.1085E+04
      0.222  0.2963E+02  0.1088E+04
      0.302  0.3013E+02  0.1090E+04
      0.382  0.2253E+02  0.1092E+04
      0.461  0.2394E+02  0.1094E+04
      0.541  0.2666E+02  0.1096E+04
      0.621  0.2215E+02  0.1098E+04
      0.701  0.2514E+02  0.1100E+04
      0.781  0.3119E+02  0.1102E+04
      0.861  0.3934E+02  0.1105E+04
      0.940  0.3523E+02  0.1108E+04
      1.020  0.3569E+02  0.1111E+04
      1.100  0.3873E+02  0.1114E+04
      1.180  0.3509E+02  0.1117E+04
      1.260  0.2212E+02  0.1119E+04
      1.340  0.2063E+02  0.1120E+04
      1.419  0.2121E+02  0.1122E+04
      1.499  0.1833E+02  0.1123E+04
      1.579  0.2275E+02  0.1125E+04
      1.659  0.2767E+02  0.1127E+04
      1.739  0.2823E+02  0.1130E+04
      1.819  0.3209E+02  0.1132E+04
      1.898  0.3293E+02  0.1135E+04
      1.978  0.2526E+02  0.1137E+04
      2.058  0.2182E+02  0.1139E+04
      2.138  0.2995E+02  0.1141E+04
      2.218  0.3292E+02  0.1144E+04
      2.298  0.1616E+02  0.1145E+04
      2.377  0.1020E+02  0.1146E+04
      2.457  0.2169E+02  0.1147E+04
      2.537  0.3171E+02  0.1150E+04
      2.617  0.3409E+02  0.1153E+04
      2.697  0.3115E+02  0.1155E+04
      2.777  0.3407E+02  0.1158E+04
      2.856  0.2887E+02  0.1160E+04
      2.936  0.2109E+02  0.1162E+04
      3.016  0.2058E+02  0.1164E+04
      3.096  0.2517E+02  0.1166E+04
      3.176  0.3402E+02  0.1168E+04
      3.256  0.3804E+02  0.1171E+04
      3.335  0.3417E+02  0.1174E+04
      3.415  0.3654E+02  0.1177E+04
      3.495  0.4347E+02  0.1180E+04
      3.575  0.5127E+02  0.1185E+04
      3.655  0.5219E+02  0.1189E+04
      3.735  0.5121E+02  0.1193E+04
      3.814  0.4741E+02  0.1197E+04
      3.894  0.3414E+02  0.1199E+04
      3.974  0.3148E+02  0.1202E+04
      4.054  0.4107E+02  0.1205E+04
      4.134  0.4776E+02  0.1209E+04
      4.214  0.4636E+02  0.1213E+04
      4.293  0.4374E+02  0.1216E+04
      4.373  0.4702E+02  0.1220E+04
      4.453  0.5789E+02  0.1224E+04
      4.533  0.6194E+02  0.1229E+04
      4.613  0.5532E+02  0.1234E+04
      4.693  0.5293E+02  0.1238E+04
      4.772  0.4425E+02  0.1242E+04
      4.852  0.3419E+02  0.1244E+04
      4.932  0.4359E+02  0.1248E+04
      5.012  0.4178E+02  0.1251E+04
      5.092  0.4544E+02  0.1255E+04
      5.172  0.6578E+02  0.1260E+04
      5.251  0.7417E+02  0.1266E+04
      5.331  0.5883E+02  0.1271E+04
      5.411  0.4317E+02  0.1274E+04
      5.491  0.4783E+02  0.1278E+04
      5.571  0.5935E+02  0.1283E+04
      5.651  0.5183E+02  0.1287E+04
      5.730  0.4851E+02  0.1291E+04
      5.810  0.6269E+02  0.1296E+04
      5.890  0.7324E+02  0.1302E+04
      5.970  0.7422E+02  0.1307E+04
      6.050  0.6657E+02  0.1313E+04
      6.130  0.5737E+02  0.1317E+04
      6.209  0.5331E+02  0.1322E+04
      6.289  0.5284E+02  0.1326E+04
      6.369  0.5107E+02  0.1330E+04
      6.449  0.5137E+02  0.1334E+04
      6.529  0.5792E+02  0.1339E+04
      6.609  0.5960E+02  0.1343E+04
      6.688  0.5855E+02  0.1348E+04
      6.768  0.6468E+02  0.1353E+04
      6.848  0.6545E+02  0.1358E+04
      6.928  0.6427E+02  0.1364E+04
      7.008  0.6234E+02  0.1369E+04
      7.088  0.6422E+02  0.1374E+04
      7.167  0.7202E+02  0.1379E+04
      7.247  0.6786E+02  0.1385E+04
      7.327  0.7293E+02  0.1391E+04
      7.407  0.8090E+02  0.1397E+04
      7.487  0.7465E+02  0.1403E+04
      7.567  0.6361E+02  0.1408E+04
      7.646  0.6484E+02  0.1413E+04
      7.726  0.7109E+02  0.1419E+04
      7.806  0.7930E+02  0.1425E+04
      7.886  0.8414E+02  0.1432E+04
      7.966  0.7414E+02  0.1438E+04
      8.046  0.6313E+02  0.1443E+04
      8.125  0.6793E+02  0.1448E+04
      8.205  0.7184E+02  0.1454E+04
      8.285  0.6564E+02  0.1459E+04
      8.365  0.7218E+02  0.1465E+04
      8.445  0.7645E+02  0.1471E+04
      8.525  0.7520E+02  0.1477E+04
      8.604  0.8353E+02  0.1484E+04
      8.684  0.9527E+02  0.1492E+04
      8.764  0.8776E+02  0.1499E+04
      8.844  0.7992E+02  0.1505E+04
      8.924  0.7397E+02  0.1511E+04
      9.004  0.7953E+02  0.1517E+04
      9.084  0.8299E+02  0.1524E+04
      9.163  0.7110E+02  0.1529E+04
      9.243  0.5511E+02  0.1534E+04
      9.323  0.5881E+02  0.1539E+04
      9.403  0.7944E+02  0.1545E+04
      9.483  0.9138E+02  0.1552E+04
      9.563  0.9323E+02  0.1560E+04
      9.642  0.9810E+02  0.1567E+04
      9.722  0.9960E+02  0.1575E+04
      9.802  0.1129E+03  0.1584E+04
      9.882  0.1118E+03  0.1593E+04
      9.962  0.9424E+02  0.1601E+04
     10.042  0.7240E+02  0.1607E+04
     10.121  0.7396E+02  0.1613E+04
     10.201  0.9246E+02  0.1620E+04
     10.281  0.9797E+02  0.1628E+04
     10.361  0.7992E+02  0.1634E+04
     10.441  0.7181E+02  0.1640E+04
     10.521  0.8201E+02  0.1646E+04
     10.600  0.8811E+02  0.1653E+04
     10.680  0.8239E+02  0.1660E+04
     10.760  0.8668E+02  0.1667E+04
     10.840  0.9465E+02  0.1675E+04
     10.920  0.1049E+03  0.1683E+04
     11.000  0.1048E+03  0.1691E+04
     11.079  0.9531E+02  0.1699E+04
     11.159  0.9084E+02  0.1706E+04
     11.239  0.8200E+02  0.1713E+04
     11.319  0.8109E+02  0.1719E+04
     11.399  0.8632E+02  0.1726E+04
     11.479  0.7919E+02  0.1732E+04
     11.558  0.8360E+02  0.1739E+04
     11.638  0.9014E+02  0.1746E+04
     11.718  0.8849E+02  0.1753E+04
     11.798  0.9702E+02  0.1761E+04
     11.878  0.9254E+02  0.1768E+04
     11.958  0.8077E+02  0.1775E+04
     12.037  0.9350E+02  0.1782E+04
     12.117  0.9506E+02  0.1790E+04
     12.197  0.9042E+02  0.1797E+04
     12.277  0.8698E+02  0.1804E+04
     12.357  0.8945E+02  0.1811E+04
     12.437  0.8940E+02  0.1818E+04
     12.516  0.8499E+02  0.1825E+04
     12.596  0.7926E+02  0.1831E+04
     12.676  0.5911E+02  0.1836E+04
     12.756  0.3113E+02  0.1839E+04
     12.836  0.1096E+02  0.1840E+04
     12.916  0.3741E+01  0.1840E+04
     12.995  0.1538E+01  0.1840E+04
     13.075  0.8560E-01  0.1840E+04
     13.155 -0.8779E-01  0.1840E+04
     13.235 -0.1045E-01  0.1840E+04
     13.315 -0.2682E-03  0.1840E+04
     13.395 -0.1763E-05  0.1840E+04
     13.474 -0.3090E-08  0.1840E+04
     13.554 -0.1466E-11  0.1840E+04
     13.634 -0.3477E-15  0.1840E+04
     13.714  0.0000E+00  0.1840E+04
     13.794  0.0000E+00  0.1840E+04
     13.874  0.0000E+00  0.1840E+04
     13.953  0.0000E+00  0.1840E+04
     14.033  0.0000E+00  0.1840E+04
     14.03325729     -9.91716384  301     -0.85756365      1.00000000
     -9.917  0.0000E+00  0.0000E+00  0.0000E+00
     -9.837  0.0000E+00  0.0000E+00  0.0000E+00
     -9.757  0.0000E+00  0.0000E+00  0.0000E+00
     -9.678 -0.1924E-33 -0.1115E-34 -0.3282E-35
     -9.598 -0.7126E-28 -0.4131E-29 -0.1216E-29
     -9.518 -0.7297E-23 -0.4230E-24 -0.1245E-24
     -9.438 -0.2061E-18 -0.1195E-19 -0.3516E-20
     -9.358 -0.1543E-14 -0.8943E-16 -0.2632E-16
     -9.278 -0.3224E-11 -0.1869E-12 -0.5501E-13
     -9.199 -0.1806E-08 -0.1047E-09 -0.3084E-10
     -9.119 -0.2642E-06 -0.1534E-07 -0.4525E-08
     -9.039 -0.9528E-05 -0.5575E-06 -0.1660E-06
     -8.959 -0.7147E-04 -0.4406E-05 -0.1391E-05
     -8.879  0.4422E-04  0.5626E-07 -0.8389E-06
     -8.799  0.1594E-02  0.9865E-04  0.3130E-04
     -8.720  0.5223E-02  0.3525E-03  0.1193E-03
     -8.640  0.3769E-02  0.2557E-03  0.8631E-04
     -8.560  0.2229E-02  0.2539E-03  0.1465E-03
     -8.480  0.3360E-02  0.4638E-03  0.2747E-03
     -8.400  0.2703E-02  0.3043E-03  0.1462E-03
     -8.320  0.6917E-02  0.4089E-03  0.3497E-03
     -8.241  0.1758E-01  0.1061E-02  0.1393E-02
     -8.161  0.1552E-01  0.1296E-02  0.1515E-02
     -8.081  0.1682E-02  0.4998E-03  0.4082E-03
     -8.001  0.9831E-02  0.6986E-03  0.1201E-02
     -7.921  0.3783E-01  0.2228E-02  0.2792E-02
     -7.841  0.3103E-01  0.1847E-02  0.1793E-02
     -7.762  0.1918E-01  0.1210E-02  0.1518E-02
     -7.682  0.4468E-01  0.3048E-02  0.4080E-02
     -7.602  0.7397E-01  0.4283E-02  0.8015E-02
     -7.522  0.8406E-01  0.4465E-02  0.9142E-02
     -7.442  0.5077E-01  0.2908E-02  0.6340E-02
     -7.362  0.9870E-01  0.4805E-02  0.1205E-01
     -7.283  0.1369E+00  0.6130E-02  0.1824E-01
     -7.203  0.1394E+00  0.6337E-02  0.2489E-01
     -7.123  0.1556E+00  0.6538E-02  0.4440E-01
     -7.043  0.2372E+00  0.9229E-02  0.7455E-01
     -6.963  0.2617E+00  0.1203E-01  0.8278E-01
     -6.883  0.2340E+00  0.1360E-01  0.1068E+00
     -6.804  0.2805E+00  0.2002E-01  0.1659E+00
     -6.724  0.2527E+00  0.2583E-01  0.2381E+00
     -6.644  0.2548E+00  0.3105E-01  0.3616E+00
     -6.564  0.2695E+00  0.3758E-01  0.4759E+00
     -6.484  0.2133E+00  0.4434E-01  0.6997E+00
     -6.404  0.2104E+00  0.5203E-01  0.1183E+01
     -6.325  0.1750E+00  0.5440E-01  0.1503E+01
     -6.245  0.1312E+00  0.5734E-01  0.1617E+01
     -6.165  0.9981E-01  0.5346E-01  0.1550E+01
     -6.085  0.6408E-01  0.4033E-01  0.1260E+01
     -6.005  0.4598E-01  0.3219E-01  0.1071E+01
     -5.925  0.4650E-01  0.3594E-01  0.1298E+01
     -5.846  0.5103E-01  0.4921E-01  0.1611E+01
     -5.766  0.3481E-01  0.4232E-01  0.1322E+01
     -5.686  0.3146E-01  0.3346E-01  0.1252E+01
     -5.606  0.3347E-01  0.3084E-01  0.1434E+01
     -5.526  0.2821E-01  0.2272E-01  0.1309E+01
     -5.446  0.3452E-01  0.2193E-01  0.1316E+01
     -5.367  0.3907E-01  0.2467E-01  0.1451E+01
     -5.287  0.4226E-01  0.3048E-01  0.1734E+01
     -5.207  0.6129E-01  0.3793E-01  0.1879E+01
     -5.127  0.7664E-01  0.4212E-01  0.2058E+01
     -5.047  0.6385E-01  0.3673E-01  0.2164E+01
     -4.967  0.5240E-01  0.3031E-01  0.2195E+01
     -4.888  0.6539E-01  0.3311E-01  0.2265E+01
     -4.808  0.6954E-01  0.4191E-01  0.2087E+01
     -4.728  0.7056E-01  0.5300E-01  0.2066E+01
     -4.648  0.7764E-01  0.6059E-01  0.2022E+01
     -4.568  0.5932E-01  0.5797E-01  0.1947E+01
     -4.488  0.4340E-01  0.4645E-01  0.2232E+01
     -4.409  0.4662E-01  0.3982E-01  0.2342E+01
     -4.329  0.4531E-01  0.3713E-01  0.2133E+01
     -4.249  0.4680E-01  0.4256E-01  0.2282E+01
     -4.169  0.5260E-01  0.4442E-01  0.2657E+01
     -4.089  0.4766E-01  0.3700E-01  0.2828E+01
     -4.009  0.3633E-01  0.3197E-01  0.2584E+01
     -3.930  0.3597E-01  0.3185E-01  0.2554E+01
     -3.850  0.4085E-01  0.3293E-01  0.3221E+01
     -3.770  0.5053E-01  0.3576E-01  0.4441E+01
     -3.690  0.5322E-01  0.3784E-01  0.5519E+01
     -3.610  0.4894E-01  0.3530E-01  0.5813E+01
     -3.530  0.5909E-01  0.3049E-01  0.5687E+01
     -3.451  0.7285E-01  0.2758E-01  0.5252E+01
     -3.371  0.7501E-01  0.2573E-01  0.4094E+01
     -3.291  0.7278E-01  0.2624E-01  0.3028E+01
     -3.211  0.7701E-01  0.2424E-01  0.2049E+01
     -3.131  0.8840E-01  0.2533E-01  0.1773E+01
     -3.051  0.8423E-01  0.3018E-01  0.1873E+01
     -2.972  0.6184E-01  0.2841E-01  0.1177E+01
     -2.892  0.4275E-01  0.1789E-01  0.5003E+00
     -2.812  0.2966E-01  0.1043E-01  0.3384E+00
     -2.732  0.3464E-01  0.1052E-01  0.1822E+00
     -2.652  0.5755E-01  0.1316E-01  0.1290E+00
     -2.572  0.9760E-01  0.2430E-01  0.1513E+00
     -2.493  0.1304E+00  0.2951E-01  0.1896E+00
     -2.413  0.1132E+00  0.2563E-01  0.1934E+00
     -2.333  0.4141E-01  0.1867E-01  0.1439E+00
     -2.253  0.3757E-01  0.2033E-01  0.1823E+00
     -2.173  0.9028E-01  0.2922E-01  0.2063E+00
     -2.093  0.8988E-01  0.3159E-01  0.1440E+00
     -2.014  0.6491E-01  0.3429E-01  0.1394E+00
     -1.934  0.5823E-01  0.3660E-01  0.1833E+00
     -1.854  0.6987E-01  0.3511E-01  0.1613E+00
     -1.774  0.5169E-01  0.2826E-01  0.9493E-01
     -1.694  0.1326E-01  0.9703E-02  0.2615E-01
     -1.614  0.3306E-01  0.1697E-01  0.3659E-01
     -1.535  0.9198E-01  0.3640E-01  0.7620E-01
     -1.455  0.1273E+00  0.4843E-01  0.1236E+00
     -1.375  0.1070E+00  0.7672E-01  0.1704E+00
     -1.295  0.7145E-01  0.9920E-01  0.1841E+00
     -1.215  0.7004E-01  0.7060E-01  0.1309E+00
     -1.135  0.4503E-01  0.3037E-01  0.6007E-01
     -1.056  0.3056E-01  0.2553E-01  0.5944E-01
     -0.976  0.3758E-01  0.3784E-01  0.6533E-01
     -0.896  0.4505E-01  0.5233E-01  0.9759E-01
     -0.816  0.7864E-01  0.7464E-01  0.1625E+00
     -0.736  0.9110E-01  0.6768E-01  0.1242E+00
     -0.656  0.5204E-01  0.5320E-01  0.6915E-01
     -0.576  0.2977E-01  0.5314E-01  0.5580E-01
     -0.497  0.5582E-01  0.4653E-01  0.5411E-01
     -0.417  0.8756E-01  0.9097E-01  0.8544E-01
     -0.337  0.8672E-01  0.1269E+00  0.1202E+00
     -0.257  0.6905E-01  0.1048E+00  0.1068E+00
     -0.177  0.6558E-01  0.9483E-01  0.1081E+00
     -0.097  0.5665E-01  0.7693E-01  0.1091E+00
     -0.018  0.4174E-01  0.8704E-01  0.9062E-01
      0.062  0.4357E-01  0.9034E-01  0.7077E-01
      0.142  0.4958E-01  0.7549E-01  0.6492E-01
      0.222  0.4361E-01  0.7129E-01  0.7986E-01
      0.302  0.3475E-01  0.8790E-01  0.7941E-01
      0.382  0.3630E-01  0.8366E-01  0.5320E-01
      0.461  0.4222E-01  0.9289E-01  0.5034E-01
      0.541  0.4188E-01  0.8610E-01  0.6555E-01
      0.621  0.3993E-01  0.6886E-01  0.5602E-01
      0.701  0.7025E-01  0.1030E+00  0.6343E-01
      0.781  0.7870E-01  0.1183E+00  0.6979E-01
      0.861  0.7048E-01  0.1404E+00  0.8599E-01
      0.940  0.7574E-01  0.1326E+00  0.9332E-01
      1.020  0.6074E-01  0.1133E+00  0.1017E+00
      1.100  0.4379E-01  0.1265E+00  0.1082E+00
      1.180  0.3574E-01  0.1129E+00  0.9320E-01
      1.260  0.2664E-01  0.6260E-01  0.6024E-01
      1.340  0.2834E-01  0.6364E-01  0.5421E-01
      1.419  0.2976E-01  0.5790E-01  0.4781E-01
      1.499  0.2604E-01  0.3903E-01  0.3263E-01
      1.579  0.2433E-01  0.7822E-01  0.4706E-01
      1.659  0.2217E-01  0.9796E-01  0.6047E-01
      1.739  0.2295E-01  0.9711E-01  0.5671E-01
      1.819  0.4927E-01  0.9964E-01  0.5729E-01
      1.898  0.4970E-01  0.9679E-01  0.6543E-01
      1.978  0.4016E-01  0.7436E-01  0.6009E-01
      2.058  0.5668E-01  0.6481E-01  0.4967E-01
      2.138  0.6041E-01  0.9185E-01  0.6761E-01
      2.218  0.4944E-01  0.8691E-01  0.7324E-01
      2.298  0.2103E-01  0.3993E-01  0.3842E-01
      2.377  0.3010E-01  0.2332E-01  0.2339E-01
      2.457  0.5846E-01  0.6004E-01  0.3335E-01
      2.537  0.5959E-01  0.9306E-01  0.4803E-01
      2.617  0.4600E-01  0.7959E-01  0.6054E-01
      2.697  0.5930E-01  0.7359E-01  0.7297E-01
      2.777  0.6170E-01  0.7545E-01  0.8705E-01
      2.856  0.4538E-01  0.5191E-01  0.6081E-01
      2.936  0.5584E-01  0.3361E-01  0.4306E-01
      3.016  0.5555E-01  0.4059E-01  0.4311E-01
      3.096  0.6875E-01  0.4265E-01  0.4699E-01
      3.176  0.1216E+00  0.4626E-01  0.7010E-01
      3.256  0.1903E+00  0.5791E-01  0.7998E-01
      3.335  0.1768E+00  0.6100E-01  0.7711E-01
      3.415  0.1291E+00  0.7075E-01  0.8735E-01
      3.495  0.1137E+00  0.9159E-01  0.8712E-01
      3.575  0.1503E+00  0.9837E-01  0.9686E-01
      3.655  0.1662E+00  0.8597E-01  0.9294E-01
      3.735  0.1282E+00  0.9862E-01  0.8511E-01
      3.814  0.1096E+00  0.9910E-01  0.8068E-01
      3.894  0.1090E+00  0.6455E-01  0.6236E-01
      3.974  0.1171E+00  0.5714E-01  0.4856E-01
      4.054  0.1096E+00  0.6690E-01  0.6321E-01
      4.134  0.1223E+00  0.6999E-01  0.7116E-01
      4.214  0.9083E-01  0.7253E-01  0.6484E-01
      4.293  0.8333E-01  0.7693E-01  0.6260E-01
      4.373  0.9503E-01  0.9321E-01  0.5829E-01
      4.453  0.7204E-01  0.1314E+00  0.6729E-01
      4.533  0.8923E-01  0.1223E+00  0.8086E-01
      4.613  0.8883E-01  0.8329E-01  0.6975E-01
      4.693  0.4847E-01  0.7865E-01  0.5398E-01
      4.772  0.3252E-01  0.7086E-01  0.4117E-01
      4.852  0.5169E-01  0.6971E-01  0.3410E-01
      4.932  0.6637E-01  0.9544E-01  0.4866E-01
      5.012  0.7340E-01  0.1140E+00  0.6217E-01
      5.092  0.7705E-01  0.1252E+00  0.6842E-01
      5.172  0.7043E-01  0.1260E+00  0.7994E-01
      5.251  0.5108E-01  0.1022E+00  0.8043E-01
      5.331  0.3380E-01  0.8424E-01  0.5961E-01
      5.411  0.2961E-01  0.9495E-01  0.4809E-01
      5.491  0.4639E-01  0.1092E+00  0.6053E-01
      5.571  0.5558E-01  0.1189E+00  0.6977E-01
      5.651  0.4820E-01  0.1186E+00  0.5650E-01
      5.730  0.4554E-01  0.1137E+00  0.4789E-01
      5.810  0.5293E-01  0.1135E+00  0.5590E-01
      5.890  0.4649E-01  0.1036E+00  0.6846E-01
      5.970  0.4186E-01  0.1041E+00  0.7182E-01
      6.050  0.5116E-01  0.1357E+00  0.6937E-01
      6.130  0.6624E-01  0.1491E+00  0.6687E-01
      6.209  0.6120E-01  0.1134E+00  0.6828E-01
      6.289  0.4153E-01  0.9340E-01  0.5673E-01
      6.369  0.3664E-01  0.9351E-01  0.4567E-01
      6.449  0.5931E-01  0.9353E-01  0.4249E-01
      6.529  0.7912E-01  0.9623E-01  0.4628E-01
      6.609  0.6744E-01  0.8608E-01  0.5146E-01
      6.688  0.5883E-01  0.8678E-01  0.5817E-01
      6.768  0.5931E-01  0.1168E+00  0.6005E-01
      6.848  0.5666E-01  0.1301E+00  0.5734E-01
      6.928  0.5325E-01  0.1247E+00  0.5848E-01
      7.008  0.5395E-01  0.1228E+00  0.6361E-01
      7.088  0.5118E-01  0.1317E+00  0.7219E-01
      7.167  0.4458E-01  0.1445E+00  0.7959E-01
      7.247  0.4270E-01  0.1247E+00  0.8316E-01
      7.327  0.5081E-01  0.1137E+00  0.7347E-01
      7.407  0.5332E-01  0.1164E+00  0.6831E-01
      7.487  0.6105E-01  0.1127E+00  0.6538E-01
      7.567  0.7228E-01  0.9759E-01  0.6290E-01
      7.646  0.6681E-01  0.1215E+00  0.6674E-01
      7.726  0.6313E-01  0.1471E+00  0.7112E-01
      7.806  0.5899E-01  0.1446E+00  0.8012E-01
      7.886  0.5140E-01  0.1366E+00  0.8336E-01
      7.966  0.3901E-01  0.1335E+00  0.7460E-01
      8.046  0.2917E-01  0.1176E+00  0.5976E-01
      8.125  0.3466E-01  0.1211E+00  0.6205E-01
      8.205  0.3665E-01  0.1218E+00  0.6418E-01
      8.285  0.2881E-01  0.1033E+00  0.6761E-01
      8.365  0.3282E-01  0.1180E+00  0.8898E-01
      8.445  0.5029E-01  0.1401E+00  0.8418E-01
      8.525  0.4950E-01  0.1326E+00  0.7333E-01
      8.604  0.4968E-01  0.1412E+00  0.7437E-01
      8.684  0.4509E-01  0.1633E+00  0.8304E-01
      8.764  0.3705E-01  0.1407E+00  0.9547E-01
      8.844  0.3922E-01  0.1357E+00  0.9539E-01
      8.924  0.3926E-01  0.1502E+00  0.9002E-01
      9.004  0.4695E-01  0.1527E+00  0.8551E-01
      9.084  0.4633E-01  0.1509E+00  0.8636E-01
      9.163  0.2983E-01  0.1379E+00  0.7687E-01
      9.243  0.1925E-01  0.9717E-01  0.4532E-01
      9.323  0.2847E-01  0.9460E-01  0.4165E-01
      9.403  0.3766E-01  0.1444E+00  0.7451E-01
      9.483  0.3203E-01  0.1515E+00  0.8157E-01
      9.563  0.3276E-01  0.1519E+00  0.7478E-01
      9.642  0.4739E-01  0.1874E+00  0.8819E-01
      9.722  0.4285E-01  0.1850E+00  0.9526E-01
      9.802  0.3040E-01  0.2011E+00  0.1150E+00
      9.882  0.3132E-01  0.1888E+00  0.1142E+00
      9.962  0.3606E-01  0.1508E+00  0.1015E+00
     10.042  0.3466E-01  0.1311E+00  0.7758E-01
     10.121  0.3612E-01  0.1415E+00  0.6281E-01
     10.201  0.3107E-01  0.1722E+00  0.7987E-01
     10.281  0.2501E-01  0.1798E+00  0.9062E-01
     10.361  0.1710E-01  0.1365E+00  0.7958E-01
     10.441  0.1710E-01  0.1219E+00  0.7577E-01
     10.521  0.2164E-01  0.1659E+00  0.7948E-01
     10.600  0.2523E-01  0.1779E+00  0.8070E-01
     10.680  0.3199E-01  0.1562E+00  0.8243E-01
     10.760  0.3492E-01  0.1658E+00  0.9070E-01
     10.840  0.2750E-01  0.1870E+00  0.7927E-01
     10.920  0.2398E-01  0.2052E+00  0.7794E-01
     11.000  0.2584E-01  0.1872E+00  0.8519E-01
     11.079  0.2416E-01  0.1790E+00  0.8429E-01
     11.159  0.2112E-01  0.1768E+00  0.8379E-01
     11.239  0.1883E-01  0.1700E+00  0.8107E-01
     11.319  0.1935E-01  0.1825E+00  0.7499E-01
     11.399  0.2011E-01  0.1704E+00  0.7555E-01
     11.479  0.1521E-01  0.1314E+00  0.6860E-01
     11.558  0.1545E-01  0.1567E+00  0.7475E-01
     11.638  0.1949E-01  0.1620E+00  0.7504E-01
     11.718  0.2427E-01  0.1748E+00  0.7542E-01
     11.798  0.2668E-01  0.2008E+00  0.8947E-01
     11.878  0.2369E-01  0.1478E+00  0.9494E-01
     11.958  0.2221E-01  0.1078E+00  0.8371E-01
     12.037  0.2623E-01  0.1517E+00  0.8779E-01
     12.117  0.2618E-01  0.1592E+00  0.8841E-01
     12.197  0.2810E-01  0.1572E+00  0.9724E-01
     12.277  0.2209E-01  0.1828E+00  0.8879E-01
     12.357  0.1579E-01  0.1487E+00  0.7387E-01
     12.437  0.1697E-01  0.1057E+00  0.7393E-01
     12.516  0.1770E-01  0.1134E+00  0.8562E-01
     12.596  0.1527E-01  0.1218E+00  0.8210E-01
     12.676  0.1141E-01  0.8333E-01  0.5377E-01
     12.756  0.5487E-02  0.3971E-01  0.2442E-01
     12.836  0.1381E-02  0.1572E-01  0.6921E-02
     12.916  0.2630E-03  0.4828E-02  0.2910E-02
     12.995 -0.2476E-04  0.1482E-02  0.1737E-02
     13.075 -0.1474E-04  0.7608E-05  0.1589E-03
     13.155 -0.2287E-05 -0.9429E-04 -0.8923E-04
     13.235 -0.2069E-06 -0.1009E-04 -0.1136E-04
     13.315 -0.5377E-08 -0.2495E-06 -0.2975E-06
     13.395 -0.3608E-10 -0.1616E-08 -0.1973E-08
     13.474 -0.6392E-13 -0.2814E-11 -0.3473E-11
     13.554 -0.3048E-16 -0.1331E-14 -0.1651E-14
     13.634 -0.7264E-20 -0.3150E-18 -0.3922E-18
     13.714  0.0000E+00  0.0000E+00  0.0000E+00
     13.794  0.0000E+00  0.0000E+00  0.0000E+00
     13.874  0.0000E+00  0.0000E+00  0.0000E+00
     13.953  0.0000E+00  0.0000E+00  0.0000E+00
     14.033  0.0000E+00  0.0000E+00  0.0000E+00
     14.03325729     -9.91716384  301     -0.85756365      1.00000000
     -9.917  0.0000E+00  0.0000E+00  0.0000E+00
     -9.837  0.0000E+00  0.0000E+00  0.0000E+00
     -9.757  0.0000E+00  0.0000E+00  0.0000E+00
     -9.678 -0.2176E-33 -0.1372E-34 -0.1699E-35
     -9.598 -0.8060E-28 -0.5080E-29 -0.6292E-30
     -9.518 -0.8254E-23 -0.5203E-24 -0.6444E-25
     -9.438 -0.2331E-18 -0.1469E-19 -0.1820E-20
     -9.358 -0.1745E-14 -0.1100E-15 -0.1362E-16
     -9.278 -0.3647E-11 -0.2299E-12 -0.2848E-13
     -9.199 -0.2043E-08 -0.1288E-09 -0.1599E-10
     -9.119 -0.2989E-06 -0.1887E-07 -0.2361E-08
     -9.039 -0.1079E-04 -0.6859E-06 -0.8966E-07
     -8.959 -0.8136E-04 -0.5425E-05 -0.9058E-06
     -8.879  0.4493E-04  0.3814E-07 -0.2185E-05
     -8.799  0.1814E-02  0.1215E-03  0.2063E-04
     -8.720  0.6004E-02  0.4337E-03  0.9547E-04
     -8.640  0.4330E-02  0.3148E-03  0.7003E-04
     -8.560  0.2924E-02  0.3234E-03  0.1843E-03
     -8.480  0.4612E-02  0.5781E-03  0.3574E-03
     -8.400  0.3263E-02  0.3737E-03  0.2046E-03
     -8.320  0.8217E-02  0.5473E-03  0.3822E-03
     -8.241  0.2294E-01  0.1553E-02  0.1599E-02
     -8.161  0.2185E-01  0.1846E-02  0.1913E-02
     -8.081  0.3786E-02  0.6371E-03  0.6465E-03
     -8.001  0.1151E-01  0.8516E-03  0.1179E-02
     -7.921  0.3937E-01  0.2429E-02  0.2204E-02
     -7.841  0.3144E-01  0.1931E-02  0.1311E-02
     -7.762  0.1501E-01  0.1282E-02  0.1564E-02
     -7.682  0.3324E-01  0.3111E-02  0.3711E-02
     -7.602  0.7245E-01  0.4696E-02  0.7047E-02
     -7.522  0.8835E-01  0.5047E-02  0.9462E-02
     -7.442  0.5980E-01  0.3507E-02  0.8256E-02
     -7.362  0.1073E+00  0.6066E-02  0.1423E-01
     -7.283  0.1382E+00  0.8118E-02  0.1810E-01
     -7.203  0.1364E+00  0.8111E-02  0.2565E-01
     -7.123  0.1570E+00  0.7976E-02  0.4213E-01
     -7.043  0.2267E+00  0.1043E-01  0.7860E-01
     -6.963  0.2109E+00  0.1232E-01  0.1053E+00
     -6.883  0.1533E+00  0.1399E-01  0.1302E+00
     -6.804  0.1896E+00  0.1977E-01  0.2120E+00
     -6.724  0.2038E+00  0.2532E-01  0.3062E+00
     -6.644  0.2306E+00  0.3090E-01  0.4144E+00
     -6.564  0.2794E+00  0.3542E-01  0.5028E+00
     -6.484  0.2795E+00  0.3807E-01  0.6582E+00
     -6.404  0.3162E+00  0.4608E-01  0.1042E+01
     -6.325  0.2731E+00  0.4861E-01  0.1293E+01
     -6.245  0.1598E+00  0.5046E-01  0.1420E+01
     -6.165  0.8179E-01  0.5045E-01  0.1429E+01
     -6.085  0.6456E-01  0.4050E-01  0.1185E+01
     -6.005  0.5299E-01  0.3372E-01  0.1055E+01
     -5.925  0.4625E-01  0.3778E-01  0.1304E+01
     -5.846  0.3791E-01  0.5104E-01  0.1682E+01
     -5.766  0.2260E-01  0.4325E-01  0.1381E+01
     -5.686  0.3220E-01  0.3302E-01  0.1197E+01
     -5.606  0.3687E-01  0.2901E-01  0.1344E+01
     -5.526  0.3278E-01  0.2246E-01  0.1215E+01
     -5.446  0.3347E-01  0.2337E-01  0.1231E+01
     -5.367  0.3073E-01  0.2483E-01  0.1490E+01
     -5.287  0.3309E-01  0.3141E-01  0.1833E+01
     -5.207  0.5011E-01  0.4226E-01  0.2021E+01
     -5.127  0.6113E-01  0.4859E-01  0.2208E+01
     -5.047  0.4806E-01  0.3941E-01  0.2065E+01
     -4.967  0.3488E-01  0.3269E-01  0.1903E+01
     -4.888  0.3685E-01  0.3591E-01  0.2054E+01
     -4.808  0.5806E-01  0.4199E-01  0.2125E+01
     -4.728  0.7800E-01  0.5118E-01  0.2062E+01
     -4.648  0.7675E-01  0.5575E-01  0.1948E+01
     -4.568  0.6620E-01  0.4802E-01  0.2118E+01
     -4.488  0.5039E-01  0.4191E-01  0.2165E+01
     -4.409  0.4318E-01  0.3908E-01  0.2132E+01
     -4.329  0.4427E-01  0.3492E-01  0.2018E+01
     -4.249  0.5934E-01  0.3849E-01  0.2235E+01
     -4.169  0.8126E-01  0.4114E-01  0.2740E+01
     -4.089  0.6993E-01  0.3583E-01  0.3199E+01
     -4.009  0.5601E-01  0.2948E-01  0.3568E+01
     -3.930  0.6007E-01  0.2666E-01  0.3826E+01
     -3.850  0.5463E-01  0.2761E-01  0.4022E+01
     -3.770  0.5897E-01  0.3387E-01  0.3985E+01
     -3.690  0.7301E-01  0.3390E-01  0.4121E+01
     -3.610  0.6729E-01  0.2944E-01  0.4669E+01
     -3.530  0.5973E-01  0.2590E-01  0.4911E+01
     -3.451  0.6156E-01  0.2441E-01  0.4915E+01
     -3.371  0.6078E-01  0.2448E-01  0.4472E+01
     -3.291  0.7099E-01  0.2454E-01  0.3340E+01
     -3.211  0.8319E-01  0.2343E-01  0.2284E+01
     -3.131  0.8572E-01  0.2551E-01  0.2170E+01
     -3.051  0.8903E-01  0.3243E-01  0.2284E+01
     -2.972  0.7167E-01  0.2963E-01  0.1466E+01
     -2.892  0.3536E-01  0.2035E-01  0.5604E+00
     -2.812  0.2062E-01  0.1447E-01  0.2361E+00