  96  96   1   0
  0.3490554E+02  0.1111185E-08  0.1110989E-08  0.3136379E-08  0.0000000E+00
  1.000000000000000E-004
  CAR 
 unknown system                          
     16.11722791    -10.79382469  301      0.51428225      1.00000000
    -10.794  0.0000E+00  0.0000E+00
    -10.704  0.0000E+00  0.0000E+00
    -10.614  0.0000E+00  0.0000E+00
    -10.525  0.0000E+00  0.0000E+00
    -10.435 -0.1203E-31 -0.1079E-32
    -10.345 -0.2619E-25 -0.2350E-26
    -10.256 -0.1126E-19 -0.1010E-20
    -10.166 -0.9514E-15 -0.8534E-16
    -10.076 -0.1511E-10 -0.1356E-11
     -9.986 -0.4744E-07 -0.4257E-08
     -9.897 -0.2788E-04 -0.2505E-05
     -9.807 -0.2866E-02 -0.2596E-03
     -9.717 -0.3922E-01 -0.3778E-02
     -9.628  0.9844E-01  0.5053E-02
     -9.538  0.7439E+00  0.7179E-01
     -9.448  0.3610E+01  0.3956E+00
     -9.359  0.5014E+01  0.8454E+00
     -9.269  0.2261E+00  0.8657E+00
     -9.179  0.2645E+01  0.1103E+01
     -9.089  0.6069E+01  0.1647E+01
     -9.000  0.5861E+01  0.2173E+01
     -8.910  0.2465E+01  0.2394E+01
     -8.820 -0.5393E-01  0.2389E+01
     -8.731  0.2160E+01  0.2583E+01
     -8.641  0.1416E+02  0.3853E+01
     -8.551  0.9862E+01  0.4738E+01
     -8.462  0.2315E+01  0.4946E+01
     -8.372  0.1144E+02  0.5972E+01
     -8.282  0.8270E+01  0.6714E+01
     -8.192  0.2929E+01  0.6977E+01
     -8.103  0.3347E+00  0.7007E+01
     -8.013  0.7730E+01  0.7700E+01
     -7.923  0.2146E+02  0.9625E+01
     -7.834  0.1311E+02  0.1080E+02
     -7.744  0.5980E+01  0.1134E+02
     -7.654  0.1496E+02  0.1268E+02
     -7.564  0.5089E+01  0.1314E+02
     -7.475  0.1572E+01  0.1328E+02
     -7.385  0.1215E+02  0.1437E+02
     -7.295  0.3091E+02  0.1714E+02
     -7.206  0.2691E+02  0.1955E+02
     -7.116  0.7593E+01  0.2024E+02
     -7.026  0.1401E+02  0.2149E+02
     -6.937  0.1781E+02  0.2309E+02
     -6.847  0.8818E+01  0.2388E+02
     -6.757  0.3628E+02  0.2714E+02
     -6.667  0.6182E+02  0.3268E+02
     -6.578  0.5539E+02  0.3765E+02
     -6.488  0.3714E+02  0.4098E+02
     -6.398  0.4793E+02  0.4528E+02
     -6.309  0.7511E+02  0.5202E+02
     -6.219  0.7868E+02  0.5908E+02
     -6.129  0.8012E+02  0.6626E+02
     -6.040  0.9454E+02  0.7474E+02
     -5.950  0.9514E+02  0.8328E+02
     -5.860  0.1048E+03  0.9268E+02
     -5.770  0.1227E+03  0.1037E+03
     -5.681  0.1106E+03  0.1136E+03
     -5.591  0.8958E+02  0.1216E+03
     -5.501  0.8011E+02  0.1288E+03
     -5.412  0.1219E+03  0.1398E+03
     -5.322  0.1555E+03  0.1537E+03
     -5.232  0.1435E+03  0.1666E+03
     -5.143  0.1290E+03  0.1782E+03
     -5.053  0.1196E+03  0.1889E+03
     -4.963  0.1042E+03  0.1982E+03
     -4.873  0.1061E+03  0.2077E+03
     -4.784  0.9241E+02  0.2160E+03
     -4.694  0.6959E+02  0.2223E+03
     -4.604  0.6894E+02  0.2285E+03
     -4.515  0.1055E+03  0.2379E+03
     -4.425  0.1251E+03  0.2491E+03
     -4.335  0.1011E+03  0.2582E+03
     -4.245  0.1032E+03  0.2675E+03
     -4.156  0.1110E+03  0.2774E+03
     -4.066  0.1282E+03  0.2889E+03
     -3.976  0.1334E+03  0.3009E+03
     -3.887  0.1097E+03  0.3107E+03
     -3.797  0.1307E+03  0.3225E+03
     -3.707  0.1320E+03  0.3343E+03
     -3.618  0.1193E+03  0.3450E+03
     -3.528  0.1191E+03  0.3557E+03
     -3.438  0.1331E+03  0.3676E+03
     -3.348  0.1277E+03  0.3791E+03
     -3.259  0.1387E+03  0.3915E+03
     -3.169  0.1675E+03  0.4065E+03
     -3.079  0.1870E+03  0.4233E+03
     -2.990  0.1893E+03  0.4403E+03
     -2.900  0.1818E+03  0.4566E+03
     -2.810  0.1720E+03  0.4720E+03
     -2.721  0.1723E+03  0.4875E+03
     -2.631  0.1781E+03  0.5035E+03
     -2.541  0.1656E+03  0.5183E+03
     -2.451  0.1519E+03  0.5319E+03
     -2.362  0.1642E+03  0.5467E+03
     -2.272  0.1817E+03  0.5630E+03
     -2.182  0.1692E+03  0.5781E+03
     -2.093  0.1251E+03  0.5894E+03
     -2.003  0.9802E+02  0.5982E+03
     -1.913  0.9806E+02  0.6070E+03
     -1.823  0.1075E+03  0.6166E+03
     -1.734  0.1217E+03  0.6275E+03
     -1.644  0.1354E+03  0.6397E+03
     -1.554  0.1540E+03  0.6535E+03
     -1.465  0.1540E+03  0.6673E+03
     -1.375  0.1446E+03  0.6803E+03
     -1.285  0.1151E+03  0.6906E+03
     -1.196  0.9721E+02  0.6993E+03
     -1.106  0.1089E+03  0.7091E+03
     -1.016  0.1135E+03  0.7193E+03
     -0.926  0.1218E+03  0.7302E+03
     -0.837  0.1357E+03  0.7424E+03
     -0.747  0.1451E+03  0.7554E+03
     -0.657  0.1415E+03  0.7681E+03
     -0.568  0.1359E+03  0.7803E+03
     -0.478  0.1323E+03  0.7921E+03
     -0.388  0.1181E+03  0.8027E+03
     -0.299  0.1040E+03  0.8121E+03
     -0.209  0.1076E+03  0.8217E+03
     -0.119  0.1143E+03  0.8320E+03
     -0.029  0.1280E+03  0.8434E+03
      0.060  0.1323E+03  0.8553E+03
      0.150  0.1272E+03  0.8667E+03
      0.240  0.1273E+03  0.8781E+03
      0.329  0.1280E+03  0.8896E+03
      0.419  0.1270E+03  0.9010E+03
      0.509  0.1463E+03  0.9141E+03
      0.599  0.1679E+03  0.9292E+03
      0.688  0.1694E+03  0.9444E+03
      0.778  0.1626E+03  0.9590E+03
      0.868  0.1502E+03  0.9724E+03
      0.957  0.1407E+03  0.9851E+03
      1.047  0.1294E+03  0.9967E+03
      1.137  0.1072E+03  0.1006E+04
      1.226  0.7964E+02  0.1013E+04
      1.316  0.6156E+02  0.1019E+04
      1.406  0.4363E+02  0.1023E+04
      1.496  0.2326E+02  0.1025E+04
      1.585  0.3178E+02  0.1028E+04
      1.675  0.3843E+02  0.1031E+04
      1.765  0.4778E+02  0.1036E+04
      1.854  0.5258E+02  0.1040E+04
      1.944  0.4490E+02  0.1044E+04
      2.034  0.2899E+02  0.1047E+04
      2.123  0.2941E+02  0.1050E+04
      2.213  0.1445E+02  0.1051E+04
      2.303  0.1192E+02  0.1052E+04
      2.393  0.1833E+02  0.1054E+04
      2.482  0.2078E+02  0.1055E+04
      2.572  0.1570E+02  0.1057E+04
      2.662  0.3760E+02  0.1060E+04
      2.751  0.5037E+02  0.1065E+04
      2.841  0.4437E+02  0.1069E+04
      2.931  0.3779E+02  0.1072E+04
      3.021  0.2672E+02  0.1074E+04
      3.110  0.2887E+02  0.1077E+04
      3.200  0.1981E+02  0.1079E+04
      3.290  0.3335E+02  0.1082E+04
      3.379  0.3409E+02  0.1085E+04
      3.469  0.1705E+02  0.1086E+04
      3.559  0.1647E+02  0.1088E+04
      3.648  0.3252E+02  0.1091E+04
      3.738  0.2936E+02  0.1093E+04
      3.828  0.2430E+02  0.1096E+04
      3.918  0.2218E+02  0.1098E+04
      4.007  0.2522E+02  0.1100E+04
      4.097  0.4248E+02  0.1104E+04
      4.187  0.5040E+02  0.1108E+04
      4.276  0.4297E+02  0.1112E+04
      4.366  0.2444E+02  0.1114E+04
      4.456  0.6243E+01  0.1115E+04
      4.545  0.1699E+02  0.1116E+04
      4.635  0.2343E+02  0.1118E+04
      4.725  0.2387E+02  0.1121E+04
      4.815  0.2785E+02  0.1123E+04
      4.904  0.3567E+02  0.1126E+04
      4.994  0.4186E+02  0.1130E+04
      5.084  0.2623E+02  0.1132E+04
      5.173  0.5811E+01  0.1133E+04
      5.263  0.6816E+01  0.1134E+04
      5.353  0.2189E+02  0.1135E+04
      5.443  0.3056E+02  0.1138E+04
      5.532  0.2277E+02  0.1140E+04
      5.622  0.1135E+02  0.1141E+04
      5.712  0.2977E+02  0.1144E+04
      5.801  0.4344E+02  0.1148E+04
      5.891  0.4344E+02  0.1152E+04
      5.981  0.3368E+02  0.1155E+04
      6.070  0.2976E+02  0.1157E+04
      6.160  0.3406E+02  0.1160E+04
      6.250  0.1800E+02  0.1162E+04
      6.340  0.1508E+02  0.1163E+04
      6.429  0.2549E+02  0.1166E+04
      6.519  0.3579E+02  0.1169E+04
      6.609  0.3846E+02  0.1172E+04
      6.698  0.4177E+02  0.1176E+04
      6.788  0.6599E+02  0.1182E+04
      6.878  0.7348E+02  0.1189E+04
      6.967  0.8035E+02  0.1196E+04
      7.057  0.6969E+02  0.1202E+04
      7.147  0.4414E+02  0.1206E+04
      7.237  0.3917E+02  0.1210E+04
      7.326  0.4942E+02  0.1214E+04
      7.416  0.5751E+02  0.1219E+04
      7.506  0.6189E+02  0.1225E+04
      7.595  0.3081E+02  0.1228E+04
      7.685  0.2462E+02  0.1230E+04
      7.775  0.5147E+02  0.1234E+04
      7.865  0.5921E+02  0.1240E+04
      7.954  0.5236E+02  0.1244E+04
      8.044  0.4452E+02  0.1248E+04
      8.134  0.5257E+02  0.1253E+04
      8.223  0.6324E+02  0.1259E+04
      8.313  0.5283E+02  0.1263E+04
      8.403  0.4398E+02  0.1267E+04
      8.492  0.4539E+02  0.1271E+04
      8.582  0.4855E+02  0.1276E+04
      8.672  0.5857E+02  0.1281E+04
      8.762  0.7205E+02  0.1288E+04
      8.851  0.7287E+02  0.1294E+04
      8.941  0.5236E+02  0.1299E+04
      9.031  0.4229E+02  0.1303E+04
      9.120  0.4980E+02  0.1307E+04
      9.210  0.6278E+02  0.1313E+04
      9.300  0.6389E+02  0.1318E+04
      9.389  0.5956E+02  0.1324E+04
      9.479  0.5622E+02  0.1329E+04
      9.569  0.2611E+02  0.1331E+04
      9.659  0.2285E+02  0.1333E+04
      9.748  0.6735E+02  0.1339E+04
      9.838  0.8091E+02  0.1346E+04
      9.928  0.5978E+02  0.1352E+04
     10.017  0.4769E+02  0.1356E+04
     10.107  0.6440E+02  0.1362E+04
     10.197  0.4490E+02  0.1366E+04
     10.286  0.4888E+02  0.1370E+04
     10.376  0.7439E+02  0.1377E+04
     10.466  0.5762E+02  0.1382E+04
     10.556  0.6106E+02  0.1388E+04
     10.645  0.6030E+02  0.1393E+04
     10.735  0.5768E+02  0.1398E+04
     10.825  0.7666E+02  0.1405E+04
     10.914  0.6799E+02  0.1411E+04
     11.004  0.4689E+02  0.1415E+04
     11.094  0.4990E+02  0.1420E+04
     11.184  0.6914E+02  0.1426E+04
     11.273  0.8533E+02  0.1434E+04
     11.363  0.8151E+02  0.1441E+04
     11.453  0.6433E+02  0.1447E+04
     11.542  0.6383E+02  0.1453E+04
     11.632  0.5489E+02  0.1457E+04
     11.722  0.5929E+02  0.1463E+04
     11.811  0.8263E+02  0.1470E+04
     11.901  0.7006E+02  0.1476E+04
     11.991  0.4194E+02  0.1480E+04
     12.081  0.6266E+02  0.1486E+04
     12.170  0.6583E+02  0.1492E+04
     12.260  0.7083E+02  0.1498E+04
     12.350  0.7810E+02  0.1505E+04
     12.439  0.6744E+02  0.1511E+04
     12.529  0.7687E+02  0.1518E+04
     12.619  0.8650E+02  0.1526E+04
     12.708  0.1002E+03  0.1535E+04
     12.798  0.7238E+02  0.1541E+04
     12.888  0.8754E+02  0.1549E+04
     12.978  0.9617E+02  0.1558E+04
     13.067  0.1031E+03  0.1567E+04
     13.157  0.9949E+02  0.1576E+04
     13.247  0.8618E+02  0.1584E+04
     13.336  0.9017E+02  0.1592E+04
     13.426  0.5306E+02  0.1597E+04
     13.516  0.2288E+02  0.1599E+04
     13.606  0.5261E+02  0.1603E+04
     13.695  0.8712E+02  0.1611E+04
     13.785  0.8916E+02  0.1619E+04
     13.875  0.8239E+02  0.1627E+04
     13.964  0.7978E+02  0.1634E+04
     14.054  0.6805E+02  0.1640E+04
     14.144  0.7142E+02  0.1646E+04
     14.233  0.1058E+03  0.1656E+04
     14.323  0.9951E+02  0.1665E+04
     14.413  0.9852E+02  0.1673E+04
     14.503  0.8948E+02  0.1681E+04
     14.592  0.8564E+02  0.1689E+04
     14.682  0.7673E+02  0.1696E+04
     14.772  0.3005E+02  0.1699E+04
     14.861  0.9334E+01  0.1700E+04
     14.951  0.5002E+01  0.1700E+04
     15.041  0.6507E-01  0.1700E+04
     15.130 -0.1757E+00  0.1700E+04
     15.220 -0.8140E-02  0.1700E+04
     15.310 -0.6250E-04  0.1700E+04
     15.400 -0.9140E-07  0.1700E+04
     15.489 -0.2619E-10  0.1700E+04
     15.579 -0.1547E-14  0.1700E+04
     15.669  0.0000E+00  0.1700E+04
     15.758  0.0000E+00  0.1700E+04
     15.848  0.0000E+00  0.1700E+04
     15.938  0.0000E+00  0.1700E+04
     16.028  0.0000E+00  0.1700E+04
     16.117  0.0000E+00  0.1700E+04
     16.11722791    -10.79382469  301      0.51428225      1.00000000
    -10.794  0.0000E+00  0.0000E+00  0.0000E+00
    -10.704  0.0000E+00  0.0000E+00  0.0000E+00
    -10.614  0.0000E+00  0.0000E+00  0.0000E+00
    -10.525  0.0000E+00  0.0000E+00  0.0000E+00
    -10.435 -0.1514E-34 -0.2079E-35 -0.2630E-37
    -10.345 -0.3298E-28 -0.4528E-29 -0.5729E-31
    -10.256 -0.1418E-22 -0.1946E-23 -0.2463E-25
    -10.166 -0.1198E-17 -0.1645E-18 -0.2081E-20
    -10.076 -0.1902E-13 -0.2612E-14 -0.3305E-16
     -9.986 -0.5973E-10 -0.8201E-11 -0.1038E-12
     -9.897 -0.3510E-07 -0.4819E-08 -0.6101E-10
     -9.807 -0.3608E-05 -0.4955E-06 -0.6318E-08
     -9.717 -0.4933E-04 -0.6800E-05 -0.9926E-07
     -9.628  0.1262E-03  0.1612E-04 -0.3863E-06
     -9.538  0.9425E-03  0.1263E-03  0.8447E-07
     -9.448  0.4444E-02  0.6639E-03  0.3470E-04
     -9.359  0.6160E-02  0.9280E-03  0.5172E-04
     -9.269  0.3001E-03  0.3766E-04 -0.2264E-05
     -9.179  0.3036E-02  0.5475E-03  0.8135E-04
     -9.089  0.6653E-02  0.1229E-02  0.2003E-03
     -9.000  0.6508E-02  0.1258E-02  0.2396E-03
     -8.910  0.3248E-02  0.5917E-03  0.9268E-04
     -8.820  0.1488E-02  0.6867E-04 -0.2960E-04
     -8.731  0.9148E-02  0.9584E-03  0.5423E-04
     -8.641  0.3500E-01  0.4908E-02  0.8100E-03
     -8.551  0.1861E-01  0.3099E-02  0.6453E-03
     -8.462  0.5674E-02  0.9833E-03  0.2307E-03
     -8.372  0.2731E-01  0.4726E-02  0.1161E-02
     -8.282  0.2492E-01  0.4188E-02  0.8712E-03
     -8.192  0.1810E-01  0.2323E-02  0.2082E-03
     -8.103  0.1402E-02  0.1199E-03  0.7419E-05
     -8.013  0.4925E-02  0.2087E-02  0.1422E-02
     -7.923  0.4237E-01  0.9667E-02  0.4197E-02
     -7.834  0.5006E-01  0.8494E-02  0.2473E-02
     -7.744  0.3297E-01  0.3560E-02  0.1577E-02
     -7.654  0.5554E-01  0.7094E-02  0.4141E-02
     -7.564  0.1322E-01  0.2224E-02  0.1442E-02
     -7.475  0.1162E-01  0.7784E-03  0.2097E-03
     -7.385  0.5704E-01  0.8341E-02  0.3653E-02
     -7.295  0.8722E-01  0.1924E-01  0.1211E-01
     -7.206  0.6051E-01  0.1351E-01  0.1053E-01
     -7.116  0.6040E-02  0.2159E-02  0.3895E-02
     -7.026  0.4536E-01  0.8612E-02  0.7835E-02
     -6.937  0.9704E-01  0.1132E-01  0.7372E-02
     -6.847  0.4786E-01  0.5459E-02  0.3518E-02
     -6.757  0.6608E-01  0.1995E-01  0.2496E-01
     -6.667  0.9267E-01  0.2487E-01  0.4571E-01
     -6.578  0.8701E-01  0.1432E-01  0.5643E-01
     -6.488  0.1386E+00  0.1505E-01  0.7423E-01
     -6.398  0.1134E+00  0.2191E-01  0.4843E-01
     -6.309  0.8543E-01  0.2401E-01  0.7152E-01
     -6.219  0.1633E+00  0.3615E-01  0.1322E+00
     -6.129  0.1697E+00  0.4076E-01  0.1529E+00
     -6.040  0.1364E+00  0.3823E-01  0.1493E+00
     -5.950  0.5873E-01  0.2427E-01  0.1142E+00
     -5.860  0.9487E-01  0.3549E-01  0.1652E+00
     -5.770  0.2585E+00  0.6000E-01  0.2638E+00
     -5.681  0.2214E+00  0.5521E-01  0.2308E+00
     -5.591  0.1302E+00  0.4377E-01  0.1757E+00
     -5.501  0.7367E-01  0.2966E-01  0.1544E+00
     -5.412  0.1446E+00  0.4949E-01  0.3578E+00
     -5.322  0.3348E+00  0.8406E-01  0.6465E+00
     -5.232  0.3318E+00  0.8084E-01  0.7530E+00
     -5.143  0.2470E+00  0.7019E-01  0.7646E+00
     -5.053  0.2284E+00  0.7517E-01  0.6446E+00
     -4.963  0.1945E+00  0.6102E-01  0.5653E+00
     -4.873  0.1543E+00  0.5083E-01  0.7038E+00
     -4.784  0.7835E-01  0.3931E-01  0.4338E+00
     -4.694  0.4347E-01  0.2226E-01  0.2427E+00
     -4.604  0.3424E-01  0.2448E-01  0.2980E+00
     -4.515  0.4942E-01  0.5523E-01  0.6398E+00
     -4.425  0.4788E-01  0.6194E-01  0.7743E+00
     -4.335  0.2504E-01  0.5366E-01  0.6746E+00
     -4.245  0.1729E-01  0.5908E-01  0.7112E+00
     -4.156  0.2540E-01  0.5607E-01  0.6719E+00
     -4.066  0.4383E-01  0.5978E-01  0.7390E+00
     -3.976  0.3344E-01  0.5413E-01  0.7908E+00
     -3.887  0.1753E-01  0.3383E-01  0.6506E+00
     -3.797  0.2654E-01  0.4064E-01  0.7810E+00
     -3.707  0.5759E-01  0.5457E-01  0.8192E+00
     -3.618  0.5851E-01  0.4979E-01  0.7001E+00
     -3.528  0.3527E-01  0.3474E-01  0.6282E+00
     -3.438  0.2823E-01  0.4054E-01  0.6600E+00
     -3.348  0.2902E-01  0.4077E-01  0.6780E+00
     -3.259  0.3234E-01  0.3492E-01  0.6848E+00
     -3.169  0.3761E-01  0.4764E-01  0.7658E+00
     -3.079  0.5038E-01  0.6373E-01  0.9835E+00
     -2.990  0.6013E-01  0.7545E-01  0.1255E+01
     -2.900  0.4736E-01  0.7098E-01  0.1326E+01
     -2.810  0.3178E-01  0.5964E-01  0.1104E+01
     -2.721  0.3437E-01  0.6956E-01  0.9704E+00
     -2.631  0.6025E-01  0.9039E-01  0.1173E+01
     -2.541  0.7716E-01  0.8234E-01  0.1382E+01
     -2.451  0.6541E-01  0.6833E-01  0.1441E+01
     -2.362  0.5994E-01  0.7672E-01  0.1783E+01
     -2.272  0.6162E-01  0.8638E-01  0.2169E+01
     -2.182  0.8018E-01  0.9625E-01  0.2146E+01
     -2.093  0.6134E-01  0.8368E-01  0.1683E+01
     -2.003  0.4609E-01  0.9347E-01  0.1488E+01
     -1.913  0.4173E-01  0.8619E-01  0.1158E+01
     -1.823  0.3642E-01  0.8134E-01  0.9362E+00
     -1.734  0.4555E-01  0.1205E+00  0.1242E+01
     -1.644  0.7662E-01  0.1312E+00  0.1386E+01
     -1.554  0.6222E-01  0.1049E+00  0.1352E+01
     -1.465  0.5979E-01  0.1014E+00  0.1324E+01
     -1.375  0.6872E-01  0.1298E+00  0.1385E+01
     -1.285  0.3880E-01  0.9675E-01  0.1206E+01
     -1.196  0.1785E-01  0.6936E-01  0.1053E+01
     -1.106  0.2483E-01  0.5521E-01  0.1055E+01
     -1.016  0.3127E-01  0.3950E-01  0.9282E+00
     -0.926  0.3492E-01  0.5715E-01  0.1141E+01
     -0.837  0.4246E-01  0.8808E-01  0.1458E+01
     -0.747  0.4905E-01  0.1110E+00  0.1603E+01
     -0.657  0.4640E-01  0.1060E+00  0.1763E+01
     -0.568  0.4657E-01  0.1026E+00  0.1843E+01
     -0.478  0.3969E-01  0.9387E-01  0.1754E+01
     -0.388  0.2899E-01  0.7083E-01  0.1436E+01
     -0.299  0.1991E-01  0.4493E-01  0.1048E+01
     -0.209  0.2072E-01  0.4984E-01  0.1206E+01
     -0.119  0.2148E-01  0.6095E-01  0.1241E+01
     -0.029  0.2139E-01  0.7375E-01  0.1393E+01
      0.060  0.2145E-01  0.7528E-01  0.1683E+01
      0.150  0.1882E-01  0.5996E-01  0.1880E+01
      0.240  0.2213E-01  0.6024E-01  0.1739E+01
      0.329  0.3177E-01  0.7099E-01  0.1510E+01
      0.419  0.3594E-01  0.5887E-01  0.1432E+01
      0.509  0.4470E-01  0.5406E-01  0.1634E+01
      0.599  0.4426E-01  0.6378E-01  0.1869E+01
      0.688  0.3904E-01  0.6123E-01  0.1854E+01
      0.778  0.3769E-01  0.6220E-01  0.1872E+01
      0.868  0.3913E-01  0.5974E-01  0.1692E+01
      0.957  0.4064E-01  0.5302E-01  0.1679E+01
      1.047  0.3723E-01  0.5608E-01  0.1562E+01
      1.137  0.2461E-01  0.5883E-01  0.1220E+01
      1.226  0.2254E-01  0.5161E-01  0.1123E+01
      1.316  0.4463E-01  0.4987E-01  0.8544E+00
      1.406  0.4229E-01  0.3805E-01  0.4817E+00
      1.496  0.1257E-01  0.1541E-01  0.4331E+00
      1.585  0.1094E-01  0.2139E-01  0.4733E+00
      1.675  0.1765E-01  0.4080E-01  0.2976E+00
      1.765  0.4438E-01  0.6386E-01  0.3961E+00
      1.854  0.5836E-01  0.8703E-01  0.4829E+00
      1.944  0.4705E-01  0.9063E-01  0.5062E+00
      2.034  0.3042E-01  0.6092E-01  0.4231E+00
      2.123  0.3456E-01  0.5630E-01  0.3983E+00
      2.213  0.1421E-01  0.2483E-01  0.1920E+00
      2.303  0.7400E-02  0.3108E-01  0.6135E-01
      2.393  0.2300E-01  0.8300E-01  0.6829E-01
      2.482  0.3308E-01  0.9627E-01  0.1192E+00
      2.572  0.1869E-01  0.3837E-01  0.7937E-01
      2.662  0.4154E-01  0.8536E-01  0.1746E+00
      2.751  0.6157E-01  0.1283E+00  0.2805E+00
      2.841  0.5453E-01  0.9537E-01  0.3222E+00
      2.931  0.5914E-01  0.7655E-01  0.3180E+00
      3.021  0.1888E-01  0.5431E-01  0.1758E+00
      3.110  0.1231E-01  0.6635E-01  0.1999E+00
      3.200  0.1938E-01  0.6871E-01  0.1497E+00
      3.290  0.4300E-01  0.1316E+00  0.1698E+00
      3.379  0.5391E-01  0.1194E+00  0.2374E+00
      3.469  0.3523E-01  0.5348E-01  0.1692E+00
      3.559  0.1753E-01  0.4296E-01  0.1090E+00
      3.648  0.1084E-01  0.4979E-01  0.1271E+00
      3.738  0.1112E-01  0.5663E-01  0.9184E-01
      3.828  0.1817E-01  0.1125E+00  0.1323E+00
      3.918  0.2317E-01  0.9041E-01  0.1397E+00
      4.007  0.3451E-01  0.8055E-01  0.8734E-01
      4.097  0.5193E-01  0.1493E+00  0.1778E+00
      4.187  0.7560E-01  0.1810E+00  0.2953E+00
      4.276  0.7184E-01  0.1343E+00  0.2715E+00
      4.366  0.2838E-01  0.6531E-01  0.1190E+00
      4.456  0.5472E-02  0.1493E-01  0.2868E-01
      4.545  0.1173E-01  0.5167E-01  0.8633E-01
      4.635  0.1964E-01  0.7040E-01  0.1090E+00
      4.725  0.2506E-01  0.6964E-01  0.9625E-01
      4.815  0.2820E-01  0.6031E-01  0.9883E-01
      4.904  0.4199E-01  0.1058E+00  0.1468E+00
      4.994  0.3409E-01  0.1415E+00  0.1521E+00
      5.084  0.1260E-01  0.9044E-01  0.1033E+00
      5.173  0.2610E-02  0.1865E-01  0.2145E-01
      5.263  0.1306E-01  0.1193E-01  0.2407E-01
      5.353  0.3880E-01  0.5815E-01  0.7786E-01
      5.443  0.4482E-01  0.9500E-01  0.1173E+00
      5.532  0.3684E-01  0.7744E-01  0.1153E+00
      5.622  0.2469E-01  0.2830E-01  0.4041E-01
      5.712  0.4619E-01  0.7563E-01  0.8996E-01
      5.801  0.6271E-01  0.1040E+00  0.1524E+00
      5.891  0.5277E-01  0.6862E-01  0.1133E+00
      5.981  0.2464E-01  0.5932E-01  0.7372E-01
      6.070  0.1934E-01  0.5539E-01  0.6750E-01
      6.160  0.5916E-01  0.4765E-01  0.7897E-01
      6.250  0.5012E-01  0.1218E-01  0.3458E-01
      6.340  0.5403E-01  0.1579E-01  0.3587E-01
      6.429  0.5478E-01  0.2317E-01  0.5039E-01
      6.519  0.4728E-01  0.2014E-01  0.4832E-01
      6.609  0.8388E-01  0.2185E-01  0.5559E-01
      6.698  0.9554E-01  0.3612E-01  0.7321E-01
      6.788  0.1951E+00  0.6703E-01  0.1586E+00
      6.878  0.2366E+00  0.1172E+00  0.2101E+00
      6.967  0.1656E+00  0.1680E+00  0.2348E+00
      7.057  0.2481E+00  0.1183E+00  0.2166E+00
      7.147  0.2311E+00  0.5759E-01  0.1402E+00
      7.237  0.9536E-01  0.5554E-01  0.5835E-01
      7.326  0.7528E-01  0.6855E-01  0.8301E-01
      7.416  0.1724E+00  0.1064E+00  0.1664E+00
      7.506  0.1864E+00  0.1059E+00  0.1383E+00
      7.595  0.8211E-01  0.5842E-01  0.5035E-01
      7.685  0.4892E-01  0.6523E-01  0.4212E-01
      7.775  0.1014E+00  0.1284E+00  0.8124E-01
      7.865  0.7387E-01  0.1237E+00  0.7111E-01
      7.954  0.3576E-01  0.7306E-01  0.5577E-01
      8.044  0.4956E-01  0.5468E-01  0.7502E-01
      8.134  0.1165E+00  0.1250E+00  0.1192E+00
      8.223  0.1167E+00  0.1737E+00  0.1255E+00
      8.313  0.8475E-01  0.1159E+00  0.8770E-01
      8.403  0.7366E-01  0.9781E-01  0.6215E-01
      8.492  0.5570E-01  0.7868E-01  0.6008E-01
      8.582  0.2758E-01  0.6679E-01  0.4776E-01
      8.672  0.4408E-01  0.1565E+00  0.7469E-01
      8.762  0.6862E-01  0.2055E+00  0.1147E+00
      8.851  0.7616E-01  0.1918E+00  0.1186E+00
      8.941  0.5581E-01  0.1434E+00  0.1033E+00
      9.031  0.5118E-01  0.9554E-01  0.8595E-01
      9.120  0.5259E-01  0.1074E+00  0.6673E-01
      9.210  0.5189E-01  0.1361E+00  0.6784E-01
      9.300  0.6746E-01  0.1762E+00  0.7706E-01
      9.389  0.6541E-01  0.1557E+00  0.7686E-01
      9.479  0.3724E-01  0.1100E+00  0.8696E-01
      9.569  0.7291E-02  0.4961E-01  0.4409E-01
      9.659  0.5147E-02  0.4390E-01  0.2555E-01
      9.748  0.5170E-01  0.1178E+00  0.6531E-01
      9.838  0.9930E-01  0.1656E+00  0.8735E-01
      9.928  0.8859E-01  0.1473E+00  0.8839E-01
     10.017  0.9194E-01  0.1389E+00  0.1026E+00
     10.107  0.1268E+00  0.1323E+00  0.9462E-01
     10.197  0.6610E-01  0.8294E-01  0.4651E-01
     10.286  0.6896E-01  0.8083E-01  0.5794E-01
     10.376  0.9557E-01  0.1163E+00  0.7972E-01
     10.466  0.4773E-01  0.7333E-01  0.4742E-01
     10.556  0.6058E-01  0.8146E-01  0.5624E-01
     10.645  0.9010E-01  0.1034E+00  0.7263E-01
     10.735  0.8276E-01  0.1103E+00  0.7315E-01
     10.825  0.8624E-01  0.1663E+00  0.8815E-01
     10.914  0.8615E-01  0.1637E+00  0.8227E-01
     11.004  0.6566E-01  0.1132E+00  0.5707E-01
     11.094  0.7357E-01  0.1290E+00  0.8512E-01
     11.184  0.6491E-01  0.1346E+00  0.9853E-01
     11.273  0.7649E-01  0.1625E+00  0.1121E+00
     11.363  0.1002E+00  0.1830E+00  0.1129E+00
     11.453  0.6482E-01  0.1315E+00  0.7847E-01
     11.542  0.4139E-01  0.9205E-01  0.6067E-01
     11.632  0.3644E-01  0.9414E-01  0.4354E-01
     11.722  0.2975E-01  0.1196E+00  0.6823E-01
     11.811  0.2113E-01  0.2089E+00  0.1454E+00
     11.901  0.2665E-01  0.1885E+00  0.1233E+00
     11.991  0.4649E-01  0.9531E-01  0.6119E-01
     12.081  0.8617E-01  0.1274E+00  0.7457E-01
     12.170  0.5995E-01  0.1404E+00  0.7803E-01
     12.260  0.4701E-01  0.1624E+00  0.1012E+00
     12.350  0.6126E-01  0.1759E+00  0.1125E+00
     12.439  0.3996E-01  0.1347E+00  0.8718E-01
     12.529  0.2625E-01  0.1639E+00  0.7666E-01
     12.619  0.3183E-01  0.1827E+00  0.1098E+00
     12.708  0.3505E-01  0.1868E+00  0.1386E+00
     12.798  0.2215E-01  0.1328E+00  0.8967E-01
     12.888  0.3359E-01  0.1574E+00  0.1001E+00
     12.978  0.5159E-01  0.1848E+00  0.1308E+00
     13.067  0.9119E-01  0.2845E+00  0.1872E+00
     13.157  0.1075E+00  0.2980E+00  0.1862E+00
     13.247  0.6139E-01  0.1887E+00  0.1501E+00
     13.336  0.3791E-01  0.1682E+00  0.1357E+00
     13.426  0.1678E-01  0.8694E-01  0.6905E-01
     13.516  0.4257E-02  0.3604E-01  0.3269E-01
     13.606  0.1421E-01  0.1028E+00  0.8120E-01
     13.695  0.2627E-01  0.1726E+00  0.1126E+00
     13.785  0.3150E-01  0.1798E+00  0.1015E+00
     13.875  0.3588E-01  0.2012E+00  0.1036E+00
     13.964  0.4438E-01  0.2380E+00  0.1140E+00
     14.054  0.3987E-01  0.1972E+00  0.1236E+00
     14.144  0.1574E-01  0.1572E+00  0.1310E+00
     14.233  0.2259E-01  0.1844E+00  0.1570E+00
     14.323  0.2455E-01  0.1801E+00  0.1288E+00
     14.413  0.2665E-01  0.1984E+00  0.1620E+00
     14.503  0.2274E-01  0.2035E+00  0.1760E+00
     14.592  0.2584E-01  0.1761E+00  0.1318E+00
     14.682  0.2743E-01  0.1187E+00  0.9845E-01
     14.772  0.9317E-02  0.4852E-01  0.3668E-01
     14.861  0.2629E-02  0.1985E-01  0.1050E-01
     14.951  0.1969E-02  0.1223E-01  0.6440E-02
     15.041  0.9077E-04  0.3669E-03  0.1723E-03
     15.130 -0.7011E-04 -0.4246E-03 -0.2290E-03
     15.220 -0.3606E-05 -0.1953E-04 -0.1111E-04
     15.310 -0.2938E-07 -0.1432E-06 -0.8790E-07
     15.400 -0.4477E-10 -0.1973E-09 -0.1318E-09
     15.489 -0.1323E-13 -0.5313E-13 -0.3862E-13
     15.579 -0.7876E-18 -0.3026E-17 -0.2221E-17
     15.669  0.0000E+00  0.0000E+00  0.0000E+00
     15.758  0.0000E+00  0.0000E+00  0.0000E+00
     15.848  0.0000E+00  0.0000E+00  0.0000E+00
     15.938  0.0000E+00  0.0000E+00  0.0000E+00
     16.028  0.0000E+00  0.0000E+00  0.0000E+00
     16.117  0.0000E+00  0.0000E+00  0.0000E+00
     16.11722791    -10.79382469  301      0.51428225      1.00000000
    -10.794  0.0000E+00  0.0000E+00  0.0000E+00
    -10.704  0.0000E+00  0.0000E+00  0.0000E+00
    -10.614  0.0000E+00  0.0000E+00  0.0000E+00
    -10.525  0.0000E+00  0.0000E+00  0.0000E+00
    -10.435 -0.1523E-34 -0.2095E-35 -0.2728E-37
    -10.345 -0.3317E-28 -0.4564E-29 -0.5941E-31
    -10.256 -0.1426E-22 -0.1962E-23 -0.2554E-25
    -10.166 -0.1205E-17 -0.1658E-18 -0.2158E-20
    -10.076 -0.1913E-13 -0.2633E-14 -0.3427E-16
     -9.986 -0.6008E-10 -0.8265E-11 -0.1076E-12
     -9.897 -0.3530E-07 -0.4857E-08 -0.6326E-10
     -9.807 -0.3629E-05 -0.4994E-06 -0.6550E-08
     -9.717 -0.4962E-04 -0.6853E-05 -0.1027E-06
     -9.628  0.1270E-03  0.1626E-04 -0.3892E-06
     -9.538  0.9481E-03  0.1273E-03  0.1172E-06
     -9.448  0.4466E-02  0.6685E-03  0.3548E-04
     -9.359  0.6191E-02  0.9344E-03  0.5284E-04
     -9.269  0.3051E-03  0.3833E-04 -0.2360E-05
     -9.179  0.3035E-02  0.5488E-03  0.8312E-04
     -9.089  0.6520E-02  0.1219E-02  0.2076E-03
     -9.000  0.6528E-02  0.1263E-02  0.2440E-03
     -8.910  0.3520E-02  0.6204E-03  0.8821E-04
     -8.820  0.1506E-02  0.7188E-04 -0.3038E-04
     -8.731  0.9135E-02  0.9563E-03  0.5353E-04
     -8.641  0.3579E-01  0.4993E-02  0.8034E-03
     -8.551  0.2005E-01  0.3270E-02  0.6327E-03
     -8.462  0.5576E-02  0.9841E-03  0.2374E-03
     -8.372  0.2618E-01  0.4641E-02  0.1194E-02
     -8.282  0.2465E-01  0.4193E-02  0.8827E-03
     -8.192  0.1885E-01  0.2422E-02  0.2086E-03
     -8.103  0.1432E-02  0.1229E-03  0.1338E-04
     -8.013  0.4021E-02  0.1998E-02  0.1463E-02
     -7.923  0.4190E-01  0.9679E-02  0.4268E-02
     -7.834  0.5206E-01  0.8704E-02  0.2499E-02
     -7.744  0.3426E-01  0.3642E-02  0.1512E-02
     -7.654  0.5433E-01  0.6992E-02  0.4110E-02
     -7.564  0.1286E-01  0.2254E-02  0.1521E-02
     -7.475  0.1114E-01  0.7983E-03  0.2411E-03
     -7.385  0.5679E-01  0.8438E-02  0.3630E-02
     -7.295  0.8633E-01  0.1950E-01  0.1218E-01
     -7.206  0.5526E-01  0.1322E-01  0.1095E-01
     -7.116  0.4249E-02  0.2018E-02  0.3794E-02
     -7.026  0.3784E-01  0.8390E-02  0.8292E-02
     -6.937  0.9324E-01  0.1146E-01  0.7777E-02
     -6.847  0.4892E-01  0.5534E-02  0.3512E-02
     -6.757  0.6559E-01  0.1921E-01  0.2556E-01
     -6.667  0.9764E-01  0.2501E-01  0.4604E-01
     -6.578  0.8666E-01  0.1428E-01  0.5509E-01
     -6.488  0.1466E+00  0.1476E-01  0.7231E-01
     -6.398  0.1231E+00  0.2103E-01  0.4797E-01
     -6.309  0.8666E-01  0.2307E-01  0.7210E-01
     -6.219  0.1620E+00  0.3468E-01  0.1261E+00
     -6.129  0.1760E+00  0.3924E-01  0.1488E+00
     -6.040  0.1536E+00  0.3926E-01  0.1520E+00
     -5.950  0.6929E-01  0.2640E-01  0.1239E+00
     -5.860  0.1046E+00  0.3838E-01  0.1676E+00
     -5.770  0.2624E+00  0.6067E-01  0.2542E+00
     -5.681  0.2177E+00  0.5239E-01  0.2306E+00
     -5.591  0.1198E+00  0.4141E-01  0.1857E+00
     -5.501  0.5728E-01  0.2758E-01  0.1687E+00
     -5.412  0.1340E+00  0.4983E-01  0.3594E+00
     -5.322  0.3128E+00  0.8547E-01  0.6138E+00
     -5.232  0.3453E+00  0.8104E-01  0.7477E+00
     -5.143  0.2526E+00  0.7389E-01  0.7749E+00
     -5.053  0.2209E+00  0.7275E-01  0.6507E+00
     -4.963  0.1917E+00  0.6160E-01  0.5368E+00
     -4.873  0.1534E+00  0.5520E-01  0.6716E+00
     -4.784  0.8953E-01  0.4287E-01  0.4928E+00
     -4.694  0.5285E-01  0.2536E-01  0.3027E+00
     -4.604  0.4190E-01  0.2490E-01  0.3346E+00
     -4.515  0.5582E-01  0.5196E-01  0.6277E+00
     -4.425  0.5075E-01  0.6235E-01  0.7732E+00
     -4.335  0.3109E-01  0.4925E-01  0.6914E+00
     -4.245  0.2338E-01  0.4846E-01  0.7049E+00
     -4.156  0.2759E-01  0.5092E-01  0.6844E+00
     -4.066  0.3952E-01  0.5750E-01  0.7794E+00
     -3.976  0.3169E-01  0.5456E-01  0.8093E+00
     -3.887  0.2006E-01  0.3418E-01  0.6633E+00
     -3.797  0.3251E-01  0.3641E-01  0.8107E+00
     -3.707  0.6610E-01  0.4936E-01  0.8431E+00
     -3.618  0.6201E-01  0.5222E-01  0.7892E+00
     -3.528  0.3819E-01  0.3931E-01  0.7128E+00
     -3.438  0.3416E-01  0.4148E-01  0.7750E+00
     -3.348  0.3287E-01  0.3964E-01  0.7464E+00
     -3.259  0.3290E-01  0.3378E-01  0.7245E+00
     -3.169  0.3755E-01  0.3664E-01  0.8134E+00
     -3.079  0.5651E-01  0.5617E-01  0.1047E+01
     -2.990  0.6400E-01  0.7255E-01  0.1291E+01
     -2.900  0.4508E-01  0.6782E-01  0.1231E+01
     -2.810  0.3780E-01  0.6830E-01  0.1079E+01