  96  96   1   0
  0.3597873E+02  0.1125459E-08  0.1125459E-08  0.3148667E-08  0.0000000E+00
  1.000000000000000E-004
  CAR 
 unknown system                          
     15.77440162    -10.76587975  301     -0.08664558      1.00000000
    -10.766  0.0000E+00  0.0000E+00
    -10.677  0.0000E+00  0.0000E+00
    -10.589  0.0000E+00  0.0000E+00
    -10.500  0.0000E+00  0.0000E+00
    -10.412 -0.9293E-31 -0.8221E-32
    -10.324 -0.1354E-24 -0.1198E-25
    -10.235 -0.4066E-19 -0.3597E-20
    -10.147 -0.2431E-14 -0.2150E-15
    -10.058 -0.3038E-10 -0.2688E-11
     -9.970 -0.7603E-07 -0.6729E-08
     -9.881 -0.3720E-04 -0.3297E-05
     -9.793 -0.3323E-02 -0.2973E-03
     -9.704 -0.4154E-01 -0.3972E-02
     -9.616  0.8731E-01  0.3752E-02
     -9.527  0.8097E+00  0.7539E-01
     -9.439  0.3986E+01  0.4280E+00
     -9.350  0.4780E+01  0.8509E+00
     -9.262  0.2591E+00  0.8738E+00
     -9.173  0.3533E+01  0.1186E+01
     -9.085  0.6341E+01  0.1747E+01
     -8.997  0.5866E+01  0.2266E+01
     -8.908  0.1474E+01  0.2397E+01
     -8.820 -0.6338E-01  0.2391E+01
     -8.731  0.5575E+01  0.2884E+01
     -8.643  0.1628E+02  0.4324E+01
     -8.554  0.5150E+01  0.4780E+01
     -8.466  0.6124E+01  0.5322E+01
     -8.377  0.1169E+02  0.6356E+01
     -8.289  0.6349E+01  0.6918E+01
     -8.200  0.7451E+00  0.6983E+01
     -8.112  0.2678E+01  0.7220E+01
     -8.023  0.1641E+02  0.8672E+01
     -7.935  0.2140E+02  0.1056E+02
     -7.846  0.5161E+01  0.1102E+02
     -7.758  0.1358E+02  0.1222E+02
     -7.670  0.1021E+02  0.1313E+02
     -7.581  0.6513E+00  0.1318E+02
     -7.493  0.7913E+01  0.1388E+02
     -7.404  0.2801E+02  0.1636E+02
     -7.316  0.3107E+02  0.1911E+02
     -7.227  0.9673E+01  0.1997E+02
     -7.139  0.1198E+02  0.2102E+02
     -7.050  0.2167E+02  0.2294E+02
     -6.962  0.8544E+01  0.2370E+02
     -6.873  0.2064E+02  0.2552E+02
     -6.785  0.5495E+02  0.3038E+02
     -6.696  0.5970E+02  0.3567E+02
     -6.608  0.5232E+02  0.4030E+02
     -6.519  0.2645E+02  0.4264E+02
     -6.431  0.5994E+02  0.4794E+02
     -6.342  0.9550E+02  0.5639E+02
     -6.254  0.7211E+02  0.6277E+02
     -6.166  0.9074E+02  0.7079E+02
     -6.077  0.8726E+02  0.7851E+02
     -5.989  0.1172E+03  0.8888E+02
     -5.900  0.1375E+03  0.1010E+03
     -5.812  0.1155E+03  0.1113E+03
     -5.723  0.9314E+02  0.1195E+03
     -5.635  0.8534E+02  0.1270E+03
     -5.546  0.1387E+03  0.1393E+03
     -5.458  0.1811E+03  0.1553E+03
     -5.369  0.1444E+03  0.1681E+03
     -5.281  0.1350E+03  0.1801E+03
     -5.192  0.1328E+03  0.1918E+03
     -5.104  0.1126E+03  0.2018E+03
     -5.015  0.1056E+03  0.2111E+03
     -4.927  0.8537E+02  0.2187E+03
     -4.839  0.6941E+02  0.2248E+03
     -4.750  0.8415E+02  0.2323E+03
     -4.662  0.1298E+03  0.2437E+03
     -4.573  0.1294E+03  0.2552E+03
     -4.485  0.1120E+03  0.2651E+03
     -4.396  0.1160E+03  0.2754E+03
     -4.308  0.1324E+03  0.2871E+03
     -4.219  0.1582E+03  0.3011E+03
     -4.131  0.1174E+03  0.3114E+03
     -4.042  0.1609E+03  0.3257E+03
     -3.954  0.1546E+03  0.3394E+03
     -3.865  0.1065E+03  0.3488E+03
     -3.777  0.1384E+03  0.3610E+03
     -3.688  0.1518E+03  0.3745E+03
     -3.600  0.1392E+03  0.3868E+03
     -3.512  0.1881E+03  0.4034E+03
     -3.423  0.2277E+03  0.4236E+03
     -3.335  0.2039E+03  0.4416E+03
     -3.246  0.2179E+03  0.4609E+03
     -3.158  0.1889E+03  0.4776E+03
     -3.069  0.2100E+03  0.4962E+03
     -2.981  0.1936E+03  0.5133E+03
     -2.892  0.1757E+03  0.5288E+03
     -2.804  0.1773E+03  0.5445E+03
     -2.715  0.2039E+03  0.5626E+03
     -2.627  0.1952E+03  0.5798E+03
     -2.538  0.1255E+03  0.5909E+03
     -2.450  0.8870E+02  0.5988E+03
     -2.361  0.1191E+03  0.6093E+03
     -2.273  0.1156E+03  0.6195E+03
     -2.185  0.1065E+03  0.6290E+03
     -2.096  0.1476E+03  0.6420E+03
     -2.008  0.2073E+03  0.6604E+03
     -1.919  0.2309E+03  0.6808E+03
     -1.831  0.1361E+03  0.6928E+03
     -1.742  0.8566E+02  0.7004E+03
     -1.654  0.1148E+03  0.7106E+03
     -1.565  0.1300E+03  0.7221E+03
     -1.477  0.1484E+03  0.7352E+03
     -1.388  0.1402E+03  0.7476E+03
     -1.300  0.1740E+03  0.7630E+03
     -1.211  0.1696E+03  0.7780E+03
     -1.123  0.1682E+03  0.7929E+03
     -1.034  0.1512E+03  0.8062E+03
     -0.946  0.1141E+03  0.8163E+03
     -0.858  0.7513E+02  0.8230E+03
     -0.769  0.1268E+03  0.8342E+03
     -0.681  0.1956E+03  0.8515E+03
     -0.592  0.1613E+03  0.8658E+03
     -0.504  0.1587E+03  0.8798E+03
     -0.415  0.1294E+03  0.8913E+03
     -0.327  0.1267E+03  0.9025E+03
     -0.238  0.2233E+03  0.9222E+03
     -0.150  0.2495E+03  0.9443E+03
     -0.061  0.2485E+03  0.9663E+03
      0.027  0.2066E+03  0.9846E+03
      0.116  0.1446E+03  0.9973E+03
      0.204  0.1230E+03  0.1008E+04
      0.293  0.7445E+02  0.1015E+04
      0.381  0.4310E+02  0.1019E+04
      0.470  0.2829E+02  0.1021E+04
      0.558  0.2775E+02  0.1024E+04
      0.646  0.2067E+02  0.1025E+04
      0.735  0.3510E+02  0.1029E+04
      0.823  0.4167E+02  0.1032E+04
      0.912  0.4630E+02  0.1036E+04
      1.000  0.3500E+02  0.1039E+04
      1.089  0.4523E+02  0.1043E+04
      1.177  0.3306E+02  0.1046E+04
      1.266  0.2808E+02  0.1049E+04
      1.354  0.1844E+02  0.1050E+04
      1.443  0.4119E+01  0.1051E+04
      1.531  0.1748E+02  0.1052E+04
      1.620  0.1402E+02  0.1054E+04
      1.708  0.2801E+02  0.1056E+04
      1.797  0.4071E+02  0.1060E+04
      1.885  0.4710E+02  0.1064E+04
      1.973  0.4375E+02  0.1068E+04
      2.062  0.3874E+02  0.1071E+04
      2.150  0.2311E+02  0.1073E+04
      2.239  0.2353E+02  0.1075E+04
      2.327  0.2006E+02  0.1077E+04
      2.416  0.3451E+02  0.1080E+04
      2.504  0.5009E+02  0.1085E+04
      2.593  0.1697E+02  0.1086E+04
      2.681  0.9202E+01  0.1087E+04
      2.770  0.3937E+02  0.1090E+04
      2.858  0.3044E+02  0.1093E+04
      2.947  0.1304E+02  0.1094E+04
      3.035  0.1304E+02  0.1095E+04
      3.124  0.2163E+02  0.1097E+04
      3.212  0.4374E+02  0.1101E+04
      3.300  0.5464E+02  0.1106E+04
      3.389  0.5465E+02  0.1111E+04
      3.477  0.2900E+02  0.1113E+04
      3.566  0.1298E+02  0.1114E+04
      3.654  0.1382E+02  0.1116E+04
      3.743  0.2216E+02  0.1118E+04
      3.831  0.2721E+02  0.1120E+04
      3.920  0.3298E+02  0.1123E+04
      4.008  0.1069E+02  0.1124E+04
      4.097  0.2190E+02  0.1126E+04
      4.185  0.4343E+02  0.1130E+04
      4.274  0.2637E+02  0.1132E+04
      4.362  0.1210E+02  0.1133E+04
      4.451  0.1546E+02  0.1134E+04
      4.539  0.2418E+02  0.1137E+04
      4.627  0.3569E+02  0.1140E+04
      4.716  0.1100E+02  0.1141E+04
      4.804  0.9128E+01  0.1142E+04
      4.893  0.3874E+02  0.1145E+04
      4.981  0.5288E+02  0.1150E+04
      5.070  0.1792E+02  0.1151E+04
      5.158  0.9409E+01  0.1152E+04
      5.247  0.2838E+02  0.1155E+04
      5.335  0.2268E+02  0.1157E+04
      5.424  0.2587E+02  0.1159E+04
      5.512  0.3269E+02  0.1162E+04
      5.601  0.3230E+02  0.1165E+04
      5.689  0.3424E+02  0.1168E+04
      5.778  0.5055E+02  0.1172E+04
      5.866  0.6939E+02  0.1178E+04
      5.954  0.4754E+02  0.1182E+04
      6.043  0.5476E+02  0.1187E+04
      6.131  0.5522E+02  0.1192E+04
      6.220  0.6002E+02  0.1198E+04
      6.308  0.4956E+02  0.1202E+04
      6.397  0.4937E+02  0.1206E+04
      6.485  0.5358E+02  0.1211E+04
      6.574  0.4068E+02  0.1215E+04
      6.662  0.5068E+02  0.1219E+04
      6.751  0.4807E+02  0.1223E+04
      6.839  0.4861E+02  0.1228E+04
      6.928  0.4356E+02  0.1232E+04
      7.016  0.2458E+02  0.1234E+04
      7.105  0.4035E+02  0.1237E+04
      7.193  0.5836E+02  0.1242E+04
      7.282  0.5778E+02  0.1248E+04
      7.370  0.7337E+02  0.1254E+04
      7.458  0.5856E+02  0.1259E+04
      7.547  0.4970E+02  0.1264E+04
      7.635  0.2426E+02  0.1266E+04
      7.724  0.1774E+02  0.1267E+04
      7.812  0.4459E+02  0.1271E+04
      7.901  0.6638E+02  0.1277E+04
      7.989  0.8870E+02  0.1285E+04
      8.078  0.6537E+02  0.1291E+04
      8.166  0.7365E+02  0.1297E+04
      8.255  0.5336E+02  0.1302E+04
      8.343  0.4227E+02  0.1306E+04
      8.432  0.6239E+02  0.1311E+04
      8.520  0.5722E+02  0.1316E+04
      8.609  0.3977E+02  0.1320E+04
      8.697  0.4503E+02  0.1324E+04
      8.785  0.4409E+02  0.1328E+04
      8.874  0.5559E+02  0.1333E+04
      8.962  0.6212E+02  0.1338E+04
      9.051  0.6247E+02  0.1344E+04
      9.139  0.5547E+02  0.1349E+04
      9.228  0.6261E+02  0.1354E+04
      9.316  0.5404E+02  0.1359E+04
      9.405  0.3416E+02  0.1362E+04
      9.493  0.3468E+02  0.1365E+04
      9.582  0.5331E+02  0.1370E+04
      9.670  0.5712E+02  0.1375E+04
      9.759  0.6072E+02  0.1380E+04
      9.847  0.8755E+02  0.1388E+04
      9.936  0.7610E+02  0.1395E+04
     10.024  0.7900E+02  0.1402E+04
     10.112  0.8998E+02  0.1410E+04
     10.201  0.5938E+02  0.1415E+04
     10.289  0.3898E+02  0.1418E+04
     10.378  0.5313E+02  0.1423E+04
     10.466  0.8142E+02  0.1430E+04
     10.555  0.6458E+02  0.1436E+04
     10.643  0.4621E+02  0.1440E+04
     10.732  0.5423E+02  0.1445E+04
     10.820  0.5208E+02  0.1449E+04
     10.909  0.7786E+02  0.1456E+04
     10.997  0.1066E+03  0.1466E+04
     11.086  0.6290E+02  0.1471E+04
     11.174  0.8076E+02  0.1478E+04
     11.263  0.6647E+02  0.1484E+04
     11.351  0.4857E+02  0.1489E+04
     11.439  0.6792E+02  0.1495E+04
     11.528  0.6545E+02  0.1500E+04
     11.616  0.5155E+02  0.1505E+04
     11.705  0.5153E+02  0.1509E+04
     11.793  0.7113E+02  0.1516E+04
     11.882  0.9630E+02  0.1524E+04
     11.970  0.1010E+03  0.1533E+04
     12.059  0.9541E+02  0.1542E+04
     12.147  0.8707E+02  0.1549E+04
     12.236  0.8478E+02  0.1557E+04
     12.324  0.1435E+03  0.1570E+04
     12.413  0.9913E+02  0.1578E+04
     12.501  0.5794E+02  0.1583E+04
     12.590  0.8108E+02  0.1591E+04
     12.678  0.6227E+02  0.1596E+04
     12.767  0.3610E+02  0.1599E+04
     12.855  0.6342E+02  0.1605E+04
     12.943  0.8559E+02  0.1613E+04
     13.032  0.7684E+02  0.1619E+04
     13.120  0.1002E+03  0.1628E+04
     13.209  0.8770E+02  0.1636E+04
     13.297  0.7061E+02  0.1642E+04
     13.386  0.6476E+02  0.1648E+04
     13.474  0.8636E+02  0.1656E+04
     13.563  0.1000E+03  0.1664E+04
     13.651  0.1014E+03  0.1673E+04
     13.740  0.1026E+03  0.1682E+04
     13.828  0.9046E+02  0.1690E+04
     13.917  0.8204E+02  0.1698E+04
     14.005  0.9679E+02  0.1706E+04
     14.094  0.7247E+02  0.1713E+04
     14.182  0.8015E+02  0.1720E+04
     14.270  0.8759E+02  0.1728E+04
     14.359  0.6817E+02  0.1734E+04
     14.447  0.4866E+02  0.1738E+04
     14.536  0.2030E+02  0.1740E+04
     14.624  0.4161E+01  0.1740E+04
     14.713 -0.2622E+00  0.1740E+04
     14.801 -0.1772E+00  0.1740E+04
     14.890 -0.8570E-02  0.1740E+04
     14.978 -0.7560E-04  0.1740E+04
     15.067 -0.1331E-06  0.1740E+04
     15.155 -0.4792E-10  0.1740E+04
     15.244 -0.3765E-14  0.1740E+04
     15.332  0.0000E+00  0.1740E+04
     15.421  0.0000E+00  0.1740E+04
     15.509  0.0000E+00  0.1740E+04
     15.597  0.0000E+00  0.1740E+04
     15.686  0.0000E+00  0.1740E+04
     15.774  0.0000E+00  0.1740E+04
     15.77440162    -10.76587975  301     -0.08664558      1.00000000
    -10.766  0.0000E+00  0.0000E+00  0.0000E+00
    -10.677  0.0000E+00  0.0000E+00  0.0000E+00
    -10.589  0.0000E+00  0.0000E+00  0.0000E+00
    -10.500  0.0000E+00  0.0000E+00  0.0000E+00
    -10.412 -0.1108E-33 -0.1219E-34 -0.3394E-37
    -10.324 -0.1614E-27 -0.1775E-28 -0.4943E-31
    -10.235 -0.4849E-22 -0.5332E-23 -0.1485E-25
    -10.147 -0.2899E-17 -0.3187E-18 -0.8877E-21
    -10.058 -0.3623E-13 -0.3984E-14 -0.1110E-16
     -9.970 -0.9067E-10 -0.9969E-11 -0.2778E-13
     -9.881 -0.4436E-07 -0.4877E-08 -0.1367E-10
     -9.793 -0.3963E-05 -0.4359E-06 -0.1306E-08
     -9.704 -0.4948E-04 -0.5474E-05 -0.3476E-07
     -9.616  0.1059E-03  0.1046E-04 -0.6581E-06
     -9.527  0.9681E-03  0.1049E-03 -0.6213E-06
     -9.439  0.4684E-02  0.5608E-03  0.2822E-04
     -9.350  0.5611E-02  0.6759E-03  0.3575E-04
     -9.262  0.3077E-03  0.3499E-04  0.3227E-06
     -9.173  0.3998E-02  0.5720E-03  0.9195E-04
     -9.085  0.7133E-02  0.1040E-02  0.1839E-03
     -8.997  0.6402E-02  0.9932E-03  0.2161E-03
     -8.908  0.1726E-02  0.2529E-03  0.5363E-04
     -8.820  0.2184E-02  0.7508E-04 -0.3232E-04
     -8.731  0.1753E-01  0.1694E-02  0.2786E-03
     -8.643  0.3429E-01  0.4096E-02  0.1027E-02
     -8.554  0.7197E-02  0.1088E-02  0.3598E-03
     -8.466  0.1702E-01  0.2126E-02  0.5764E-03
     -8.377  0.3296E-01  0.4150E-02  0.1116E-02
     -8.289  0.2520E-01  0.3021E-02  0.6416E-03
     -8.200  0.4659E-02  0.4996E-03  0.4650E-04
     -8.112 -0.1596E-04  0.3344E-03  0.4212E-03
     -8.023  0.2771E-01  0.5321E-02  0.3067E-02
     -7.935  0.5431E-01  0.8915E-02  0.4313E-02
     -7.846  0.2377E-01  0.2400E-02  0.1499E-02
     -7.758  0.5781E-01  0.5466E-02  0.4769E-02
     -7.670  0.3090E-01  0.3542E-02  0.3255E-02
     -7.581  0.5510E-02  0.9657E-04  0.1598E-03
     -7.493  0.4708E-01  0.4164E-02  0.3155E-02
     -7.404  0.9246E-01  0.1435E-01  0.1206E-01
     -7.316  0.6769E-01  0.1321E-01  0.1347E-01
     -7.227  0.6537E-02  0.2580E-02  0.4547E-02
     -7.139  0.3512E-01  0.6005E-02  0.8412E-02
     -7.050  0.9440E-01  0.1002E-01  0.1290E-01
     -6.962  0.5068E-01  0.3444E-02  0.5738E-02
     -6.873  0.5993E-01  0.1266E-01  0.1749E-01
     -6.785  0.9449E-01  0.2124E-01  0.5162E-01
     -6.696  0.8522E-01  0.1201E-01  0.7244E-01
     -6.608  0.1396E+00  0.1504E-01  0.8915E-01
     -6.519  0.1035E+00  0.1539E-01  0.3283E-01
     -6.431  0.8346E-01  0.1561E-01  0.8414E-01
     -6.342  0.1566E+00  0.2717E-01  0.1628E+00
     -6.254  0.1513E+00  0.2677E-01  0.1445E+00
     -6.166  0.1397E+00  0.3600E-01  0.1528E+00
     -6.077  0.7686E-01  0.2371E-01  0.1491E+00
     -5.989  0.1288E+00  0.3083E-01  0.2737E+00
     -5.900  0.2255E+00  0.4865E-01  0.3356E+00
     -5.812  0.1741E+00  0.3869E-01  0.2571E+00
     -5.723  0.8828E-01  0.2907E-01  0.2210E+00
     -5.635  0.8157E-01  0.2149E-01  0.3340E+00
     -5.546  0.2614E+00  0.5050E-01  0.8057E+00
     -5.458  0.3257E+00  0.6927E-01  0.1054E+01
     -5.369  0.2006E+00  0.5194E-01  0.7459E+00
     -5.281  0.1567E+00  0.5508E-01  0.7988E+00
     -5.192  0.1715E+00  0.5469E-01  0.8094E+00
     -5.104  0.9703E-01  0.3619E-01  0.6668E+00
     -5.015  0.6778E-01  0.3278E-01  0.5469E+00
     -4.927  0.4784E-01  0.2553E-01  0.4029E+00
     -4.839  0.2830E-01  0.1647E-01  0.3057E+00
     -4.750  0.4072E-01  0.3067E-01  0.6147E+00
     -4.662  0.3604E-01  0.4730E-01  0.9795E+00
     -4.573  0.2625E-01  0.4420E-01  0.9160E+00
     -4.485  0.1530E-01  0.4311E-01  0.8784E+00
     -4.396  0.1488E-01  0.4112E-01  0.8165E+00
     -4.308  0.3424E-01  0.4227E-01  0.8692E+00
     -4.219  0.3164E-01  0.4125E-01  0.9647E+00
     -4.131  0.2020E-01  0.2587E-01  0.7263E+00
     -4.042  0.2769E-01  0.3219E-01  0.1071E+01
     -3.954  0.4800E-01  0.4082E-01  0.1084E+01
     -3.865  0.2871E-01  0.2313E-01  0.7018E+00
     -3.777  0.2392E-01  0.1978E-01  0.8212E+00
     -3.688  0.2883E-01  0.2979E-01  0.9799E+00
     -3.600  0.2810E-01  0.2514E-01  0.1008E+01
     -3.512  0.4740E-01  0.4361E-01  0.1437E+01
     -3.423  0.5254E-01  0.5129E-01  0.1623E+01
     -3.335  0.3936E-01  0.4218E-01  0.1494E+01
     -3.246  0.2918E-01  0.4144E-01  0.1550E+01
     -3.158  0.4882E-01  0.5608E-01  0.1410E+01
     -3.069  0.9723E-01  0.9593E-01  0.2054E+01
     -2.981  0.6289E-01  0.6663E-01  0.2073E+01
     -2.892  0.4493E-01  0.6141E-01  0.2212E+01
     -2.804  0.4166E-01  0.5299E-01  0.2193E+01
     -2.715  0.5404E-01  0.5919E-01  0.2237E+01
     -2.627  0.6241E-01  0.7882E-01  0.2233E+01
     -2.538  0.4469E-01  0.7077E-01  0.1432E+01
     -2.450  0.2417E-01  0.4379E-01  0.8399E+00
     -2.361  0.2804E-01  0.7811E-01  0.1350E+01
     -2.273  0.4999E-01  0.8658E-01  0.1344E+01
     -2.185  0.7664E-01  0.9894E-01  0.1207E+01
     -2.096  0.6048E-01  0.7515E-01  0.1476E+01
     -2.008  0.4841E-01  0.7824E-01  0.1896E+01
     -1.919  0.4368E-01  0.1014E+00  0.2255E+01
     -1.831  0.2385E-01  0.6090E-01  0.1301E+01
     -1.742  0.1637E-01  0.1515E-01  0.6302E+00
     -1.654  0.3312E-01  0.2767E-01  0.1266E+01
     -1.565  0.3102E-01  0.5467E-01  0.1523E+01
     -1.477  0.1979E-01  0.4590E-01  0.1567E+01
     -1.388  0.2999E-01  0.7728E-01  0.1593E+01
     -1.300  0.4044E-01  0.9027E-01  0.2027E+01
     -1.211  0.3752E-01  0.6362E-01  0.1839E+01
     -1.123  0.4399E-01  0.6875E-01  0.1833E+01
     -1.034  0.4258E-01  0.6179E-01  0.1862E+01
     -0.946  0.3018E-01  0.2684E-01  0.1345E+01
     -0.858  0.2037E-01  0.1816E-01  0.8442E+00
     -0.769  0.2315E-01  0.4403E-01  0.1579E+01
     -0.681  0.4082E-01  0.7361E-01  0.2324E+01
     -0.592  0.3069E-01  0.4409E-01  0.1732E+01
     -0.504  0.2643E-01  0.3521E-01  0.1779E+01
     -0.415  0.3225E-01  0.2990E-01  0.1456E+01
     -0.327  0.2820E-01  0.2878E-01  0.1321E+01
     -0.238  0.5301E-01  0.5745E-01  0.2214E+01
     -0.150  0.4771E-01  0.4657E-01  0.2267E+01
     -0.061  0.2799E-01  0.4458E-01  0.1969E+01
      0.027  0.2654E-01  0.5561E-01  0.1847E+01
      0.116  0.5323E-01  0.4604E-01  0.1315E+01
      0.204  0.4448E-01  0.3052E-01  0.9874E+00
      0.293  0.8087E-02  0.1101E-01  0.6789E+00
      0.381  0.2195E-02  0.7568E-02  0.5024E+00
      0.470  0.3059E-01  0.1800E-01  0.3318E+00
      0.558  0.5037E-01  0.2802E-01  0.1848E+00
      0.646  0.1473E-01  0.2672E-01  0.1121E+00
      0.735  0.1534E-01  0.3625E-01  0.2014E+00
      0.823  0.1997E-01  0.3643E-01  0.2516E+00
      0.912  0.4379E-01  0.6581E-01  0.3661E+00
      1.000  0.7231E-01  0.5915E-01  0.2363E+00
      1.089  0.8804E-01  0.7522E-01  0.3250E+00
      1.177  0.4447E-01  0.5295E-01  0.3044E+00
      1.266  0.3404E-01  0.5054E-01  0.2205E+00
      1.354  0.1496E-01  0.3950E-01  0.1037E+00
      1.443  0.4375E-02  0.7197E-02  0.2218E-01
      1.531  0.1031E-01  0.2240E-01  0.9172E-01
      1.620  0.8464E-02  0.2239E-01  0.6512E-01
      1.708  0.4113E-01  0.7497E-01  0.7813E-01
      1.797  0.4851E-01  0.8526E-01  0.1329E+00
      1.885  0.6516E-01  0.9646E-01  0.2371E+00
      1.973  0.7164E-01  0.7813E-01  0.2783E+00
      2.062  0.6087E-01  0.7800E-01  0.2462E+00
      2.150  0.2083E-01  0.5301E-01  0.1116E+00
      2.239  0.1991E-01  0.4830E-01  0.1166E+00
      2.327  0.1388E-01  0.4337E-01  0.1132E+00
      2.416  0.5562E-01  0.8064E-01  0.2134E+00
      2.504  0.9797E-01  0.1407E+00  0.2750E+00
      2.593  0.2803E-01  0.6831E-01  0.6963E-01
      2.681  0.6471E-02  0.2082E-01  0.1989E-01
      2.770  0.2715E-01  0.4748E-01  0.1176E+00
      2.858  0.1421E-01  0.5208E-01  0.1071E+00
      2.947  0.1532E-01  0.5374E-01  0.5695E-01
      3.035  0.2056E-01  0.5362E-01  0.6582E-01
      3.124  0.1958E-01  0.4531E-01  0.9888E-01
      3.212  0.5972E-01  0.1034E+00  0.1795E+00
      3.300  0.1035E+00  0.1629E+00  0.2027E+00
      3.389  0.9225E-01  0.1567E+00  0.2093E+00
      3.477  0.2488E-01  0.6667E-01  0.1018E+00
      3.566  0.1511E-02  0.3035E-01  0.3995E-01
      3.654  0.1891E-01  0.4651E-01  0.7402E-01
      3.743  0.2935E-01  0.6773E-01  0.1043E+00
      3.831  0.4192E-01  0.5495E-01  0.9749E-01
      3.920  0.6034E-01  0.5397E-01  0.1115E+00
      4.008  0.1462E-01  0.1556E-01  0.3261E-01
      4.097  0.1420E-01  0.4615E-01  0.6855E-01
      4.185  0.2759E-01  0.1201E+00  0.1241E+00
      4.274  0.8370E-02  0.7993E-01  0.7278E-01
      4.362  0.2040E-01  0.2601E-01  0.3674E-01
      4.451  0.5403E-01  0.2039E-01  0.5126E-01
      4.539  0.5157E-01  0.6012E-01  0.8282E-01
      4.627  0.5761E-01  0.9537E-01  0.1180E+00
      4.716  0.8974E-02  0.3050E-01  0.3050E-01
      4.804  0.3105E-01  0.2325E-01  0.3633E-01
      4.893  0.8105E-01  0.6275E-01  0.1004E+00
      4.981  0.8530E-01  0.7624E-01  0.1146E+00
      5.070  0.1913E-01  0.1799E-01  0.2545E-01
      5.158  0.2951E-01  0.2468E-01  0.3357E-01
      5.247  0.7671E-01  0.6032E-01  0.7938E-01
      5.335  0.4502E-01  0.3794E-01  0.4286E-01
      5.424  0.8063E-01  0.3426E-01  0.4881E-01
      5.512  0.8806E-01  0.1851E-01  0.5725E-01
      5.601  0.7893E-01  0.2077E-01  0.6485E-01
      5.689  0.5128E-01  0.4484E-01  0.6112E-01
      5.778  0.2183E+00  0.6947E-01  0.1318E+00
      5.866  0.3024E+00  0.6445E-01  0.1674E+00
      5.954  0.1352E+00  0.5384E-01  0.1079E+00
      6.043  0.2284E+00  0.8067E-01  0.1498E+00
      6.131  0.2340E+00  0.6277E-01  0.1240E+00
      6.220  0.8063E-01  0.9909E-01  0.8929E-01
      6.308  0.2984E-01  0.9379E-01  0.7239E-01
      6.397  0.1100E+00  0.9416E-01  0.1111E+00
      6.485  0.1951E+00  0.9355E-01  0.1235E+00
      6.574  0.1289E+00  0.6386E-01  0.7456E-01
      6.662  0.4049E-01  0.5867E-01  0.4858E-01
      6.751  0.3618E-01  0.4083E-01  0.3717E-01
      6.839  0.1079E+00  0.9878E-01  0.5926E-01
      6.928  0.8567E-01  0.9095E-01  0.4839E-01
      7.016  0.1783E-01  0.2414E-01  0.1891E-01
      7.105  0.8343E-01  0.7415E-01  0.8389E-01
      7.193  0.1054E+00  0.1488E+00  0.1359E+00
      7.282  0.8917E-01  0.1062E+00  0.8306E-01
      7.370  0.1013E+00  0.1213E+00  0.7386E-01
      7.458  0.6194E-01  0.1109E+00  0.5627E-01
      7.547  0.5074E-01  0.8986E-01  0.4745E-01
      7.635  0.1457E-01  0.3814E-01  0.1574E-01
      7.724  0.5615E-02  0.3162E-01  0.1167E-01
      7.812  0.4682E-01  0.1256E+00  0.7314E-01
      7.901  0.8484E-01  0.1695E+00  0.1124E+00
      7.989  0.1123E+00  0.1872E+00  0.1218E+00
      8.078  0.7955E-01  0.1139E+00  0.7502E-01
      8.166  0.5721E-01  0.1222E+00  0.7593E-01
      8.255  0.2814E-01  0.8966E-01  0.5422E-01
      8.343  0.2257E-01  0.7305E-01  0.5071E-01
      8.432  0.3993E-01  0.1673E+00  0.8138E-01
      8.520  0.4665E-01  0.1638E+00  0.6490E-01
      8.609  0.3226E-01  0.7820E-01  0.4577E-01
      8.697  0.2597E-01  0.6378E-01  0.4150E-01
      8.785  0.1232E-01  0.3565E-01  0.2762E-01
      8.874  0.4404E-01  0.6213E-01  0.5314E-01
      8.962  0.1411E+00  0.1667E+00  0.1151E+00
      9.051  0.1200E+00  0.1830E+00  0.9187E-01
      9.139  0.4417E-01  0.9454E-01  0.4609E-01
      9.228  0.6761E-01  0.6846E-01  0.4344E-01
      9.316  0.7812E-01  0.8676E-01  0.5023E-01
      9.405  0.2812E-01  0.7442E-01  0.3707E-01
      9.493  0.1993E-01  0.5746E-01  0.2223E-01
      9.582  0.8125E-01  0.5696E-01  0.4067E-01
      9.670  0.9822E-01  0.7141E-01  0.4756E-01
      9.759  0.4871E-01  0.9924E-01  0.5461E-01
      9.847  0.7228E-01  0.1791E+00  0.9860E-01
      9.936  0.6921E-01  0.1321E+00  0.8226E-01
     10.024  0.1156E+00  0.1268E+00  0.9454E-01
     10.112  0.1154E+00  0.1769E+00  0.1075E+00
     10.201  0.4466E-01  0.1246E+00  0.6881E-01
     10.289  0.2544E-01  0.9399E-01  0.4743E-01
     10.378  0.6649E-01  0.1097E+00  0.5113E-01
     10.466  0.1016E+00  0.1498E+00  0.7717E-01
     10.555  0.4422E-01  0.1034E+00  0.5815E-01
     10.643  0.1767E-01  0.6009E-01  0.2771E-01
     10.732  0.3077E-01  0.8193E-01  0.3761E-01
     10.820  0.3247E-01  0.8936E-01  0.4331E-01
     10.909  0.4520E-01  0.1692E+00  0.1183E+00
     10.997  0.7729E-01  0.2452E+00  0.1632E+00
     11.086  0.3178E-01  0.1238E+00  0.6360E-01
     11.174  0.5221E-01  0.1386E+00  0.7592E-01
     11.263  0.5979E-01  0.1195E+00  0.6957E-01
     11.351  0.4964E-01  0.1080E+00  0.6226E-01
     11.439  0.3447E-01  0.1152E+00  0.7995E-01
     11.528  0.1903E-01  0.1051E+00  0.7264E-01
     11.616  0.2045E-01  0.8974E-01  0.3522E-01
     11.705  0.1873E-01  0.9798E-01  0.4066E-01
     11.793  0.2329E-01  0.1407E+00  0.7302E-01
     11.882  0.3683E-01  0.1583E+00  0.1043E+00
     11.970  0.3566E-01  0.1949E+00  0.1114E+00
     12.059  0.5837E-01  0.2268E+00  0.1345E+00
     12.147  0.9351E-01  0.2470E+00  0.1467E+00
     12.236  0.6186E-01  0.1740E+00  0.1116E+00
     12.324  0.6379E-01  0.2364E+00  0.1567E+00
     12.413  0.3687E-01  0.1523E+00  0.1005E+00
     12.501  0.1248E-01  0.7180E-01  0.5775E-01
     12.590  0.2871E-01  0.1148E+00  0.7397E-01
     12.678  0.2443E-01  0.1043E+00  0.5873E-01
     12.767  0.1064E-01  0.7577E-01  0.4216E-01
     12.855  0.2221E-01  0.1226E+00  0.8518E-01
     12.943  0.2950E-01  0.1857E+00  0.1104E+00
     13.032  0.3895E-01  0.1869E+00  0.8438E-01
     13.120  0.6433E-01  0.2288E+00  0.1079E+00
     13.209  0.3578E-01  0.1637E+00  0.9534E-01
     13.297  0.1592E-01  0.1410E+00  0.1091E+00
     13.386  0.1083E-01  0.1558E+00  0.8317E-01
     13.474  0.2048E-01  0.1489E+00  0.9099E-01
     13.563  0.2845E-01  0.1711E+00  0.1300E+00
     13.651  0.1775E-01  0.1781E+00  0.1497E+00
     13.740  0.3267E-01  0.1860E+00  0.1400E+00
     13.828  0.4576E-01  0.1794E+00  0.1043E+00
     13.917  0.2157E-01  0.1272E+00  0.7783E-01
     14.005  0.2335E-01  0.1484E+00  0.8595E-01
     14.094  0.2014E-01  0.1619E+00  0.7002E-01
     14.182  0.2499E-01  0.1989E+00  0.9125E-01
     14.270  0.3680E-01  0.1834E+00  0.1324E+00
     14.359  0.2741E-01  0.1326E+00  0.1032E+00
     14.447  0.1216E-01  0.7930E-01  0.6526E-01
     14.536  0.3094E-02  0.2847E-01  0.2518E-01
     14.624  0.2653E-03  0.5302E-02  0.3686E-02
     14.713 -0.9105E-04 -0.5394E-03 -0.5681E-03
     14.801 -0.1829E-04 -0.2337E-03 -0.1680E-03
     14.890 -0.7230E-06 -0.9904E-05 -0.6599E-05
     14.978 -0.6028E-08 -0.7919E-07 -0.5160E-07
     15.067 -0.1039E-10 -0.1283E-09 -0.8415E-10
     15.155 -0.3686E-14 -0.4290E-13 -0.2881E-13
     15.244 -0.2813E-18 -0.3191E-17 -0.2229E-17
     15.332  0.0000E+00  0.0000E+00  0.0000E+00
     15.421  0.0000E+00  0.0000E+00  0.0000E+00
     15.509  0.0000E+00  0.0000E+00  0.0000E+00
     15.597  0.0000E+00  0.0000E+00  0.0000E+00
     15.686  0.0000E+00  0.0000E+00  0.0000E+00
     15.774  0.0000E+00  0.0000E+00  0.0000E+00
     15.77440162    -10.76587975  301     -0.08664558      1.00000000
    -10.766  0.0000E+00  0.0000E+00  0.0000E+00
    -10.677  0.0000E+00  0.0000E+00  0.0000E+00
    -10.589  0.0000E+00  0.0000E+00  0.0000E+00
    -10.500  0.0000E+00  0.0000E+00  0.0000E+00
    -10.412 -0.1108E-33 -0.1219E-34 -0.3394E-37
    -10.324 -0.1614E-27 -0.1775E-28 -0.4944E-31
    -10.235 -0.4849E-22 -0.5332E-23 -0.1485E-25
    -10.147 -0.2899E-17 -0.3187E-18 -0.8878E-21
    -10.058 -0.3623E-13 -0.3984E-14 -0.1110E-16
     -9.970 -0.9067E-10 -0.9969E-11 -0.2778E-13
     -9.881 -0.4436E-07 -0.4877E-08 -0.1367E-10
     -9.793 -0.3963E-05 -0.4359E-06 -0.1306E-08
     -9.704 -0.4948E-04 -0.5474E-05 -0.3476E-07
     -9.616  0.1059E-03  0.1046E-04 -0.6581E-06
     -9.527  0.9681E-03  0.1049E-03 -0.6213E-06
     -9.439  0.4684E-02  0.5608E-03  0.2822E-04
     -9.350  0.5611E-02  0.6759E-03  0.3575E-04
     -9.262  0.3077E-03  0.3499E-04  0.3227E-06
     -9.173  0.3998E-02  0.5720E-03  0.9195E-04
     -9.085  0.7133E-02  0.1040E-02  0.1839E-03
     -8.997  0.6402E-02  0.9932E-03  0.2161E-03
     -8.908  0.1726E-02  0.2529E-03  0.5363E-04
     -8.820  0.2184E-02  0.7508E-04 -0.3232E-04
     -8.731  0.1753E-01  0.1694E-02  0.2786E-03
     -8.643  0.3429E-01  0.4096E-02  0.1027E-02
     -8.554  0.7196E-02  0.1088E-02  0.3598E-03
     -8.466  0.1702E-01  0.2126E-02  0.5764E-03
     -8.377  0.3296E-01  0.4150E-02  0.1116E-02
     -8.289  0.2520E-01  0.3021E-02  0.6416E-03
     -8.200  0.4659E-02  0.4996E-03  0.4650E-04
     -8.112 -0.1590E-04  0.3344E-03  0.4212E-03
     -8.023  0.2771E-01  0.5321E-02  0.3067E-02
     -7.935  0.5431E-01  0.8915E-02  0.4313E-02
     -7.846  0.2377E-01  0.2400E-02  0.1499E-02
     -7.758  0.5781E-01  0.5466E-02  0.4769E-02
     -7.670  0.3090E-01  0.3542E-02  0.3254E-02
     -7.581  0.5510E-02  0.9655E-04  0.1598E-03
     -7.493  0.4708E-01  0.4164E-02  0.3155E-02
     -7.404  0.9246E-01  0.1435E-01  0.1206E-01
     -7.316  0.6769E-01  0.1321E-01  0.1347E-01
     -7.227  0.6537E-02  0.2580E-02  0.4547E-02
     -7.139  0.3512E-01  0.6005E-02  0.8412E-02
     -7.050  0.9440E-01  0.1002E-01  0.1290E-01
     -6.962  0.5068E-01  0.3444E-02  0.5738E-02
     -6.873  0.5993E-01  0.1266E-01  0.1749E-01
     -6.785  0.9449E-01  0.2124E-01  0.5162E-01
     -6.696  0.8522E-01  0.1201E-01  0.7244E-01
     -6.608  0.1396E+00  0.1504E-01  0.8915E-01
     -6.519  0.1035E+00  0.1539E-01  0.3283E-01
     -6.431  0.8346E-01  0.1561E-01  0.8414E-01
     -6.342  0.1566E+00  0.2717E-01  0.1628E+00
     -6.254  0.1513E+00  0.2677E-01  0.1445E+00
     -6.166  0.1397E+00  0.3600E-01  0.1528E+00
     -6.077  0.7686E-01  0.2371E-01  0.1491E+00
     -5.989  0.1288E+00  0.3083E-01  0.2737E+00
     -5.900  0.2255E+00  0.4865E-01  0.3356E+00
     -5.812  0.1741E+00  0.3870E-01  0.2571E+00
     -5.723  0.8828E-01  0.2907E-01  0.2210E+00
     -5.635  0.8157E-01  0.2149E-01  0.3340E+00
     -5.546  0.2614E+00  0.5050E-01  0.8057E+00
     -5.458  0.3257E+00  0.6927E-01  0.1054E+01
     -5.369  0.2006E+00  0.5194E-01  0.7459E+00
     -5.281  0.1567E+00  0.5508E-01  0.7988E+00
     -5.192  0.1715E+00  0.5469E-01  0.8094E+00
     -5.104  0.9703E-01  0.3619E-01  0.6668E+00
     -5.015  0.6778E-01  0.3278E-01  0.5469E+00
     -4.927  0.4784E-01  0.2553E-01  0.4029E+00
     -4.839  0.2830E-01  0.1647E-01  0.3057E+00
     -4.750  0.4072E-01  0.3067E-01  0.6147E+00
     -4.662  0.3604E-01  0.4730E-01  0.9795E+00
     -4.573  0.2625E-01  0.4420E-01  0.9160E+00
     -4.485  0.1530E-01  0.4311E-01  0.8784E+00
     -4.396  0.1488E-01  0.4112E-01  0.8165E+00
     -4.308  0.3424E-01  0.4227E-01  0.8692E+00
     -4.219  0.3164E-01  0.4125E-01  0.9647E+00
     -4.131  0.2020E-01  0.2587E-01  0.7263E+00
     -4.042  0.2769E-01  0.3219E-01  0.1071E+01
     -3.954  0.4800E-01  0.4082E-01  0.1084E+01
     -3.865  0.2871E-01  0.2313E-01  0.7018E+00
     -3.777  0.2392E-01  0.1978E-01  0.8212E+00
     -3.688  0.2883E-01  0.2979E-01  0.9799E+00
     -3.600  0.2810E-01  0.2514E-01  0.1008E+01
     -3.512  0.4740E-01  0.4361E-01  0.1437E+01
     -3.423  0.5254E-01  0.5129E-01  0.1623E+01
     -3.335  0.3936E-01  0.4218E-01  0.1494E+01
     -3.246  0.2918E-01  0.4144E-01  0.1550E+01
     -3.158  0.4882E-01  0.5608E-01  0.1410E+01
     -3.069  0.9723E-01  0.9593E-01  0.2054E+01
     -2.981  0.6289E-01  0.6663E-01  0.2073E+01
     -2.892  0.4493E-01  0.6141E-01  0.2212E+01