  96  96   1   0
  0.3436146E+02  0.1102963E-08  0.1104108E-08  0.3127780E-08  0.0000000E+00
  1.000000000000000E-004
  CAR 
 unknown system                          
     16.12591612    -10.72941966  301      0.80376003      1.00000000
    -10.729  0.0000E+00  0.0000E+00
    -10.640  0.0000E+00  0.0000E+00
    -10.550  0.0000E+00  0.0000E+00
    -10.461  0.0000E+00  0.0000E+00
    -10.371 -0.1638E-31 -0.1466E-32
    -10.282 -0.3358E-25 -0.3006E-26
    -10.192 -0.1367E-19 -0.1224E-20
    -10.103 -0.1102E-14 -0.9861E-16
    -10.013 -0.1679E-10 -0.1503E-11
     -9.924 -0.5095E-07 -0.4562E-08
     -9.834 -0.2912E-04 -0.2611E-05
     -9.745 -0.2929E-02 -0.2648E-03
     -9.655 -0.3915E-01 -0.3770E-02
     -9.566  0.1075E+00  0.5851E-02
     -9.476  0.7187E+00  0.7019E-01
     -9.387  0.3369E+01  0.3718E+00
     -9.297  0.5189E+01  0.8363E+00
     -9.208  0.3282E+00  0.8657E+00
     -9.118  0.1994E+01  0.1044E+01
     -9.029  0.5996E+01  0.1581E+01
     -8.939  0.5622E+01  0.2084E+01
     -8.850  0.3304E+01  0.2380E+01
     -8.760  0.1282E+00  0.2391E+01
     -8.671  0.8659E+00  0.2469E+01
     -8.581  0.1065E+02  0.3422E+01
     -8.491  0.1338E+02  0.4620E+01
     -8.402  0.1921E+01  0.4792E+01
     -8.312  0.8619E+01  0.5564E+01
     -8.223  0.1049E+02  0.6503E+01
     -8.133  0.4712E+01  0.6924E+01
     -8.044  0.5954E+00  0.6978E+01
     -7.954  0.2773E+01  0.7226E+01
     -7.865  0.1547E+02  0.8611E+01
     -7.775  0.2037E+02  0.1043E+02
     -7.686  0.5602E+01  0.1094E+02
     -7.596  0.1073E+02  0.1190E+02
     -7.507  0.1263E+02  0.1303E+02
     -7.417  0.9629E+00  0.1311E+02
     -7.328  0.3630E+01  0.1344E+02
     -7.238  0.1967E+02  0.1520E+02
     -7.149  0.3496E+02  0.1833E+02
     -7.059  0.1774E+02  0.1992E+02
     -6.970  0.7583E+01  0.2060E+02
     -6.880  0.1550E+02  0.2198E+02
     -6.791  0.1477E+02  0.2331E+02
     -6.701  0.1562E+02  0.2470E+02
     -6.612  0.5167E+02  0.2933E+02
     -6.522  0.6302E+02  0.3497E+02
     -6.433  0.4651E+02  0.3913E+02
     -6.343  0.3900E+02  0.4262E+02
     -6.254  0.6084E+02  0.4807E+02
     -6.164  0.7331E+02  0.5463E+02
     -6.074  0.7647E+02  0.6148E+02
     -5.985  0.8777E+02  0.6934E+02
     -5.895  0.9755E+02  0.7807E+02
     -5.806  0.9453E+02  0.8653E+02
     -5.716  0.1009E+03  0.9556E+02
     -5.627  0.1169E+03  0.1060E+03
     -5.537  0.1060E+03  0.1155E+03
     -5.448  0.8431E+02  0.1231E+03
     -5.358  0.7715E+02  0.1300E+03
     -5.269  0.1147E+03  0.1402E+03
     -5.179  0.1500E+03  0.1537E+03
     -5.090  0.1409E+03  0.1663E+03
     -5.000  0.1224E+03  0.1772E+03
     -4.911  0.1215E+03  0.1881E+03
     -4.821  0.1023E+03  0.1973E+03
     -4.732  0.9577E+02  0.2058E+03
     -4.642  0.9680E+02  0.2145E+03
     -4.553  0.7017E+02  0.2208E+03
     -4.463  0.6357E+02  0.2265E+03
     -4.374  0.8527E+02  0.2341E+03
     -4.284  0.1232E+03  0.2451E+03
     -4.195  0.1036E+03  0.2544E+03
     -4.105  0.9157E+02  0.2626E+03
     -4.016  0.1060E+03  0.2721E+03
     -3.926  0.1098E+03  0.2819E+03
     -3.837  0.1319E+03  0.2937E+03
     -3.747  0.1151E+03  0.3041E+03
     -3.658  0.1045E+03  0.3134E+03
     -3.568  0.1232E+03  0.3244E+03
     -3.478  0.1209E+03  0.3353E+03
     -3.389  0.1145E+03  0.3455E+03
     -3.299  0.1183E+03  0.3561E+03
     -3.210  0.1266E+03  0.3674E+03
     -3.120  0.1195E+03  0.3781E+03
     -3.031  0.1184E+03  0.3887E+03
     -2.941  0.1474E+03  0.4019E+03
     -2.852  0.1741E+03  0.4175E+03
     -2.762  0.1789E+03  0.4335E+03
     -2.673  0.1727E+03  0.4490E+03
     -2.583  0.1678E+03  0.4640E+03
     -2.494  0.1613E+03  0.4784E+03
     -2.404  0.1656E+03  0.4933E+03
     -2.315  0.1710E+03  0.5086E+03
     -2.225  0.1495E+03  0.5219E+03
     -2.136  0.1451E+03  0.5349E+03
     -2.046  0.1615E+03  0.5494E+03
     -1.957  0.1790E+03  0.5654E+03
     -1.867  0.1623E+03  0.5799E+03
     -1.778  0.1186E+03  0.5906E+03
     -1.688  0.8735E+02  0.5984E+03
     -1.599  0.8622E+02  0.6061E+03
     -1.509  0.1025E+03  0.6153E+03
     -1.420  0.1193E+03  0.6260E+03
     -1.330  0.1222E+03  0.6369E+03
     -1.241  0.1330E+03  0.6488E+03
     -1.151  0.1551E+03  0.6627E+03
     -1.061  0.1433E+03  0.6755E+03
     -0.972  0.1156E+03  0.6859E+03
     -0.882  0.9609E+02  0.6945E+03
     -0.793  0.9085E+02  0.7026E+03
     -0.703  0.9648E+02  0.7112E+03
     -0.614  0.1121E+03  0.7213E+03
     -0.524  0.1249E+03  0.7324E+03
     -0.435  0.1268E+03  0.7438E+03
     -0.345  0.1360E+03  0.7560E+03
     -0.256  0.1378E+03  0.7683E+03
     -0.166  0.1228E+03  0.7793E+03
     -0.077  0.1212E+03  0.7901E+03
      0.013  0.1184E+03  0.8007E+03
      0.102  0.1045E+03  0.8101E+03
      0.192  0.1040E+03  0.8194E+03
      0.281  0.1043E+03  0.8287E+03
      0.371  0.1118E+03  0.8388E+03
      0.460  0.1178E+03  0.8493E+03
      0.550  0.1234E+03  0.8604E+03
      0.639  0.1266E+03  0.8717E+03
      0.729  0.1203E+03  0.8825E+03
      0.818  0.1142E+03  0.8927E+03
      0.908  0.1170E+03  0.9032E+03
      0.997  0.1294E+03  0.9147E+03
      1.087  0.1497E+03  0.9281E+03
      1.176  0.1623E+03  0.9427E+03
      1.266  0.1601E+03  0.9570E+03
      1.355  0.1536E+03  0.9707E+03
      1.445  0.1489E+03  0.9841E+03
      1.535  0.1311E+03  0.9958E+03
      1.624  0.9814E+02  0.1005E+04
      1.714  0.7473E+02  0.1011E+04
      1.803  0.7368E+02  0.1018E+04
      1.893  0.5099E+02  0.1022E+04
      1.982  0.2610E+02  0.1025E+04
      2.072  0.3332E+02  0.1028E+04
      2.161  0.4029E+02  0.1031E+04
      2.251  0.5296E+02  0.1036E+04
      2.340  0.5458E+02  0.1041E+04
      2.430  0.4126E+02  0.1045E+04
      2.519  0.2291E+02  0.1047E+04
      2.609  0.2743E+02  0.1049E+04
      2.698  0.2171E+02  0.1051E+04
      2.788  0.1432E+02  0.1052E+04
      2.877  0.1880E+02  0.1054E+04
      2.967  0.1502E+02  0.1055E+04
      3.056  0.1255E+02  0.1057E+04
      3.146  0.3559E+02  0.1060E+04
      3.235  0.4879E+02  0.1064E+04
      3.325  0.4080E+02  0.1068E+04
      3.414  0.3835E+02  0.1071E+04
      3.504  0.3463E+02  0.1074E+04
      3.593  0.2781E+02  0.1077E+04
      3.683  0.1835E+02  0.1078E+04
      3.772  0.2603E+02  0.1081E+04
      3.862  0.3476E+02  0.1084E+04
      3.951  0.2265E+02  0.1086E+04
      4.041  0.1975E+02  0.1088E+04
      4.131  0.2164E+02  0.1090E+04
      4.220  0.3186E+02  0.1092E+04
      4.310  0.4113E+02  0.1096E+04
      4.399  0.2051E+02  0.1098E+04
      4.489  0.1887E+02  0.1100E+04
      4.578  0.3014E+02  0.1102E+04
      4.668  0.4630E+02  0.1107E+04
      4.757  0.5102E+02  0.1111E+04
      4.847  0.3047E+02  0.1114E+04
      4.936  0.9083E+01  0.1115E+04
      5.026  0.9253E+01  0.1115E+04
      5.115  0.2222E+02  0.1117E+04
      5.205  0.2470E+02  0.1120E+04
      5.294  0.2648E+02  0.1122E+04
      5.384  0.3981E+02  0.1126E+04
      5.473  0.4625E+02  0.1130E+04
      5.563  0.2345E+02  0.1132E+04
      5.652  0.1068E+02  0.1133E+04
      5.742  0.7449E+01  0.1133E+04
      5.831  0.1645E+02  0.1135E+04
      5.921  0.2457E+02  0.1137E+04
      6.010  0.2089E+02  0.1139E+04
      6.100  0.3170E+02  0.1142E+04
      6.189  0.3063E+02  0.1145E+04
      6.279  0.4517E+02  0.1149E+04
      6.368  0.5311E+02  0.1153E+04
      6.458  0.4745E+02  0.1158E+04
      6.548  0.1903E+02  0.1159E+04
      6.637  0.1324E+02  0.1161E+04
      6.727  0.3548E+02  0.1164E+04
      6.816  0.2879E+02  0.1166E+04
      6.906  0.1974E+02  0.1168E+04
      6.995  0.1867E+02  0.1170E+04
      7.085  0.2266E+02  0.1172E+04
      7.174  0.3964E+02  0.1175E+04
      7.264  0.6046E+02  0.1181E+04
      7.353  0.9015E+02  0.1189E+04
      7.443  0.9169E+02  0.1197E+04
      7.532  0.6728E+02  0.1203E+04
      7.622  0.6542E+02  0.1209E+04
      7.711  0.5315E+02  0.1214E+04
      7.801  0.3358E+02  0.1217E+04
      7.890  0.2817E+02  0.1219E+04
      7.980  0.4810E+02  0.1223E+04
      8.069  0.5972E+02  0.1229E+04
      8.159  0.4507E+02  0.1233E+04
      8.248  0.5764E+02  0.1238E+04
      8.338  0.6865E+02  0.1244E+04
      8.427  0.3645E+02  0.1247E+04
      8.517  0.2046E+02  0.1249E+04
      8.606  0.3569E+02  0.1252E+04
      8.696  0.7217E+02  0.1259E+04
      8.785  0.8103E+02  0.1266E+04
      8.875  0.5684E+02  0.1271E+04
      8.964  0.4519E+02  0.1275E+04
      9.054  0.6026E+02  0.1281E+04
      9.144  0.5867E+02  0.1286E+04
      9.233  0.6315E+02  0.1292E+04
      9.323  0.5167E+02  0.1296E+04
      9.412  0.3981E+02  0.1300E+04
      9.502  0.5471E+02  0.1305E+04
      9.591  0.5835E+02  0.1310E+04
      9.681  0.6208E+02  0.1315E+04
      9.770  0.5839E+02  0.1321E+04
      9.860  0.6521E+02  0.1326E+04
      9.949  0.3458E+02  0.1330E+04
     10.039  0.4113E+02  0.1333E+04
     10.128  0.6270E+02  0.1339E+04
     10.218  0.6246E+02  0.1344E+04
     10.307  0.5208E+02  0.1349E+04
     10.397  0.4710E+02  0.1353E+04
     10.486  0.5230E+02  0.1358E+04
     10.576  0.5310E+02  0.1363E+04
     10.665  0.7060E+02  0.1369E+04
     10.755  0.8419E+02  0.1377E+04
     10.844  0.6459E+02  0.1382E+04
     10.934  0.5380E+02  0.1387E+04
     11.023  0.3906E+02  0.1391E+04
     11.113  0.5509E+02  0.1396E+04
     11.202  0.7787E+02  0.1403E+04
     11.292  0.6521E+02  0.1408E+04
     11.381  0.4953E+02  0.1413E+04
     11.471  0.4371E+02  0.1417E+04
     11.561  0.5288E+02  0.1422E+04
     11.650  0.7491E+02  0.1428E+04
     11.740  0.8849E+02  0.1436E+04
     11.829  0.9835E+02  0.1445E+04
     11.919  0.8890E+02  0.1453E+04
     12.008  0.5172E+02  0.1458E+04
     12.098  0.5504E+02  0.1463E+04
     12.187  0.4737E+02  0.1467E+04
     12.277  0.4846E+02  0.1471E+04
     12.366  0.6259E+02  0.1477E+04
     12.456  0.5615E+02  0.1482E+04
     12.545  0.6127E+02  0.1487E+04
     12.635  0.7789E+02  0.1494E+04
     12.724  0.7204E+02  0.1501E+04
     12.814  0.7582E+02  0.1507E+04
     12.903  0.8422E+02  0.1515E+04
     12.993  0.8813E+02  0.1523E+04
     13.082  0.8502E+02  0.1530E+04
     13.172  0.9612E+02  0.1539E+04
     13.261  0.1080E+03  0.1549E+04
     13.351  0.6773E+02  0.1555E+04
     13.440  0.6536E+02  0.1561E+04
     13.530  0.8423E+02  0.1568E+04
     13.619  0.1014E+03  0.1577E+04
     13.709  0.9993E+02  0.1586E+04
     13.798  0.6460E+02  0.1592E+04
     13.888  0.4491E+02  0.1596E+04
     13.977  0.6331E+02  0.1602E+04
     14.067  0.6079E+02  0.1607E+04
     14.157  0.8283E+02  0.1615E+04
     14.246  0.6516E+02  0.1620E+04
     14.336  0.6671E+02  0.1626E+04
     14.425  0.7431E+02  0.1633E+04
     14.515  0.7155E+02  0.1639E+04
     14.604  0.7730E+02  0.1646E+04
     14.694  0.7510E+02  0.1653E+04
     14.783  0.4832E+02  0.1657E+04
     14.873  0.2413E+02  0.1660E+04
     14.962  0.6077E+01  0.1660E+04
     15.052 -0.4033E+00  0.1660E+04
     15.141 -0.2081E+00  0.1660E+04
     15.231 -0.8813E-02  0.1660E+04
     15.320 -0.6824E-04  0.1660E+04
     15.410 -0.1024E-06  0.1660E+04
     15.499 -0.3020E-10  0.1660E+04
     15.589 -0.1860E-14  0.1660E+04
     15.678  0.0000E+00  0.1660E+04
     15.768  0.0000E+00  0.1660E+04
     15.857  0.0000E+00  0.1660E+04
     15.947  0.0000E+00  0.1660E+04
     16.036  0.0000E+00  0.1660E+04
     16.126  0.0000E+00  0.1660E+04
     16.12591612    -10.72941966  301      0.80376003      1.00000000
    -10.729  0.0000E+00  0.0000E+00  0.0000E+00
    -10.640  0.0000E+00  0.0000E+00  0.0000E+00
    -10.550  0.0000E+00  0.0000E+00  0.0000E+00
    -10.461  0.0000E+00  0.0000E+00  0.0000E+00
    -10.371 -0.1780E-34 -0.2243E-35 -0.3638E-37
    -10.282 -0.3649E-28 -0.4597E-29 -0.7456E-31
    -10.192 -0.1486E-22 -0.1872E-23 -0.3036E-25
    -10.103 -0.1197E-17 -0.1508E-18 -0.2446E-20
    -10.013 -0.1825E-13 -0.2299E-14 -0.3729E-16
     -9.924 -0.5537E-10 -0.6976E-11 -0.1131E-12
     -9.834 -0.3165E-07 -0.3987E-08 -0.6469E-10
     -9.745 -0.3183E-05 -0.4011E-06 -0.6539E-08
     -9.655 -0.4254E-04 -0.5375E-05 -0.9709E-07
     -9.566  0.1176E-03  0.1404E-04 -0.2468E-06
     -9.476  0.7836E-03  0.9620E-04  0.1022E-07
     -9.387  0.3627E-02  0.4926E-03  0.2988E-04
     -9.297  0.5579E-02  0.7645E-03  0.5003E-04
     -9.208  0.3485E-03  0.4221E-04 -0.1214E-05
     -9.118  0.2118E-02  0.3385E-03  0.5636E-04
     -9.029  0.6791E-02  0.1052E-02  0.1560E-03
     -8.939  0.6159E-02  0.1010E-02  0.1950E-03
     -8.850  0.2145E-02  0.4735E-03  0.1650E-03
     -8.760  0.8855E-03  0.5275E-04 -0.5835E-05
     -8.671  0.5277E-02  0.4476E-03 -0.1717E-04
     -8.581  0.2643E-01  0.3225E-02  0.5635E-03
     -8.491  0.1989E-01  0.2971E-02  0.9400E-03
     -8.402  0.6262E-03  0.2486E-03  0.1880E-03
     -8.312  0.2839E-01  0.3654E-02  0.6903E-03
     -8.223  0.3851E-01  0.4792E-02  0.8389E-03
     -8.133  0.1677E-01  0.2439E-02  0.5316E-03
     -8.044 -0.9685E-04  0.2291E-03  0.1081E-03
     -7.954  0.2048E-02  0.5375E-03  0.4231E-03
     -7.865  0.2873E-01  0.5481E-02  0.2782E-02
     -7.775  0.4256E-01  0.8356E-02  0.4220E-02
     -7.686  0.1141E-01  0.2273E-02  0.1535E-02
     -7.596  0.3654E-01  0.4980E-02  0.3492E-02
     -7.507  0.5201E-01  0.5217E-02  0.3479E-02
     -7.417  0.4176E-02  0.1032E-03  0.8589E-04
     -7.328  0.2735E-01  0.1976E-02  0.1012E-02
     -7.238  0.7287E-01  0.1005E-01  0.8004E-02
     -7.149  0.9333E-01  0.1683E-01  0.1457E-01
     -7.059  0.3166E-01  0.7169E-02  0.7612E-02
     -6.970  0.1487E-01  0.3484E-02  0.5058E-02
     -6.880  0.4558E-01  0.6260E-02  0.7721E-02
     -6.791  0.5702E-01  0.6772E-02  0.5103E-02
     -6.701  0.3182E-01  0.7512E-02  0.1037E-01
     -6.612  0.1005E+00  0.2227E-01  0.4271E-01
     -6.522  0.9422E-01  0.1722E-01  0.5446E-01
     -6.433  0.7076E-01  0.6501E-02  0.5838E-01
     -6.343  0.1449E+00  0.1190E-01  0.8741E-01
     -6.254  0.1336E+00  0.2270E-01  0.6428E-01
     -6.164  0.9994E-01  0.1924E-01  0.8240E-01
     -6.074  0.1746E+00  0.2876E-01  0.1643E+00
     -5.985  0.1871E+00  0.3543E-01  0.2066E+00
     -5.895  0.1312E+00  0.3092E-01  0.1820E+00
     -5.806  0.6526E-01  0.2506E-01  0.1574E+00
     -5.716  0.9862E-01  0.3047E-01  0.2085E+00
     -5.627  0.2242E+00  0.4490E-01  0.3273E+00
     -5.537  0.1879E+00  0.4379E-01  0.2874E+00
     -5.448  0.1236E+00  0.3462E-01  0.1974E+00
     -5.358  0.7795E-01  0.2381E-01  0.2023E+00
     -5.269  0.1592E+00  0.3973E-01  0.4776E+00
     -5.179  0.3157E+00  0.7329E-01  0.8391E+00
     -5.090  0.3011E+00  0.6823E-01  0.1006E+01
     -5.000  0.1775E+00  0.5920E-01  0.9729E+00
     -4.911  0.1656E+00  0.5871E-01  0.9249E+00
     -4.821  0.1382E+00  0.4004E-01  0.6656E+00
     -4.732  0.1135E+00  0.3364E-01  0.8461E+00
     -4.642  0.1041E+00  0.3853E-01  0.7249E+00
     -4.553  0.5202E-01  0.2437E-01  0.3700E+00
     -4.463  0.2890E-01  0.1810E-01  0.3905E+00
     -4.374  0.3881E-01  0.3489E-01  0.7949E+00
     -4.284  0.4755E-01  0.5127E-01  0.1088E+01
     -4.195  0.2780E-01  0.4276E-01  0.9064E+00
     -4.105  0.1652E-01  0.4013E-01  0.8841E+00
     -4.016  0.1538E-01  0.4293E-01  0.9793E+00
     -3.926  0.2475E-01  0.4420E-01  0.9270E+00
     -3.837  0.3893E-01  0.4683E-01  0.1063E+01
     -3.747  0.2678E-01  0.3388E-01  0.8807E+00
     -3.658  0.1678E-01  0.2559E-01  0.8231E+00
     -3.568  0.2425E-01  0.3162E-01  0.1021E+01
     -3.478  0.4814E-01  0.4122E-01  0.1125E+01
     -3.389  0.4678E-01  0.3751E-01  0.1115E+01
     -3.299  0.3353E-01  0.2534E-01  0.1047E+01
     -3.210  0.3758E-01  0.2437E-01  0.1080E+01
     -3.120  0.3550E-01  0.2280E-01  0.1062E+01
     -3.031  0.2620E-01  0.2326E-01  0.1098E+01
     -2.941  0.2384E-01  0.3541E-01  0.1386E+01
     -2.852  0.4048E-01  0.5699E-01  0.1820E+01
     -2.762  0.5592E-01  0.6139E-01  0.1844E+01
     -2.673  0.4406E-01  0.5689E-01  0.1891E+01
     -2.583  0.3252E-01  0.4743E-01  0.1795E+01
     -2.494  0.3508E-01  0.4501E-01  0.1563E+01
     -2.404  0.6336E-01  0.6371E-01  0.1719E+01
     -2.315  0.6910E-01  0.7910E-01  0.1991E+01
     -2.225  0.3972E-01  0.7936E-01  0.1947E+01
     -2.136  0.3978E-01  0.8241E-01  0.2150E+01
     -2.046  0.5420E-01  0.7909E-01  0.2228E+01
     -1.957  0.5615E-01  0.6714E-01  0.2044E+01
     -1.867  0.5156E-01  0.7261E-01  0.1719E+01
     -1.778  0.4355E-01  0.6784E-01  0.1204E+01
     -1.688  0.3554E-01  0.7405E-01  0.1058E+01
     -1.599  0.2339E-01  0.5424E-01  0.9213E+00
     -1.509  0.3257E-01  0.8222E-01  0.1017E+01
     -1.420  0.7687E-01  0.1343E+00  0.1375E+01
     -1.330  0.6506E-01  0.1110E+00  0.1480E+01
     -1.241  0.4940E-01  0.8999E-01  0.1483E+01
     -1.151  0.6620E-01  0.9770E-01  0.1569E+01
     -1.061  0.5241E-01  0.9520E-01  0.1492E+01
     -0.972  0.2898E-01  0.7638E-01  0.1085E+01
     -0.882  0.1998E-01  0.5739E-01  0.7969E+00
     -0.793  0.2409E-01  0.4579E-01  0.8729E+00
     -0.703  0.2895E-01  0.4244E-01  0.1113E+01
     -0.614  0.3640E-01  0.5352E-01  0.1552E+01
     -0.524  0.5016E-01  0.8418E-01  0.1553E+01
     -0.435  0.5445E-01  0.1023E+00  0.1283E+01
     -0.345  0.4339E-01  0.1066E+00  0.1356E+01
     -0.256  0.5045E-01  0.9540E-01  0.1394E+01
     -0.166  0.4036E-01  0.7991E-01  0.1168E+01
     -0.077  0.3028E-01  0.6735E-01  0.1134E+01
      0.013  0.2743E-01  0.4852E-01  0.1011E+01
      0.102  0.3051E-01  0.4080E-01  0.9660E+00
      0.192  0.3180E-01  0.4247E-01  0.1055E+01
      0.281  0.3414E-01  0.6161E-01  0.1015E+01
      0.371  0.3833E-01  0.7884E-01  0.1219E+01
      0.460  0.3118E-01  0.6434E-01  0.1367E+01
      0.550  0.2172E-01  0.5205E-01  0.1467E+01
      0.639  0.2951E-01  0.6605E-01  0.1347E+01
      0.729  0.3136E-01  0.5925E-01  0.1059E+01
      0.818  0.2585E-01  0.3502E-01  0.9231E+00
      0.908  0.2681E-01  0.3254E-01  0.8361E+00
      0.997  0.2251E-01  0.4144E-01  0.8764E+00
      1.087  0.2066E-01  0.4984E-01  0.9091E+00
      1.176  0.1717E-01  0.3843E-01  0.8434E+00
      1.266  0.1670E-01  0.3925E-01  0.8050E+00
      1.355  0.2083E-01  0.4099E-01  0.7277E+00
      1.445  0.2503E-01  0.4339E-01  0.6355E+00
      1.535  0.2157E-01  0.5497E-01  0.5726E+00
      1.624  0.1139E-01  0.5443E-01  0.4520E+00
      1.714  0.1300E-01  0.3602E-01  0.3791E+00
      1.803  0.3291E-01  0.4095E-01  0.3907E+00
      1.893  0.2357E-01  0.2245E-01  0.3454E+00
      1.982  0.6835E-02  0.1167E-01  0.2350E+00
      2.072  0.1189E-01  0.3183E-01  0.2310E+00
      2.161  0.2307E-01  0.5215E-01  0.2706E+00
      2.251  0.4436E-01  0.6876E-01  0.2529E+00
      2.340  0.4453E-01  0.5575E-01  0.2449E+00
      2.430  0.3150E-01  0.5207E-01  0.2321E+00
      2.519  0.2457E-01  0.4325E-01  0.1908E+00
      2.609  0.3320E-01  0.4944E-01  0.2166E+00
      2.698  0.2357E-01  0.4482E-01  0.1618E+00
      2.788  0.1178E-01  0.4882E-01  0.4679E-01
      2.877  0.1844E-01  0.6541E-01  0.5494E-01
      2.967  0.2231E-01  0.4563E-01  0.7325E-01
      3.056  0.9295E-02  0.2088E-01  0.4837E-01
      3.146  0.2823E-01  0.6041E-01  0.1440E+00
      3.235  0.4837E-01  0.8979E-01  0.2286E+00
      3.325  0.3620E-01  0.7691E-01  0.1921E+00
      3.414  0.4384E-01  0.6885E-01  0.1620E+00
      3.504  0.2461E-01  0.4746E-01  0.1381E+00
      3.593  0.1582E-01  0.5053E-01  0.1351E+00
      3.683  0.1849E-01  0.7373E-01  0.1145E+00
      3.772  0.3403E-01  0.9391E-01  0.1084E+00
      3.862  0.5377E-01  0.8699E-01  0.1204E+00
      3.951  0.4126E-01  0.5457E-01  0.1394E+00
      4.041  0.2546E-01  0.4733E-01  0.1289E+00
      4.131  0.1134E-01  0.4549E-01  0.9377E-01
      4.220  0.1428E-01  0.4888E-01  0.7742E-01
      4.310  0.2479E-01  0.9474E-01  0.1169E+00
      4.399  0.1670E-01  0.7071E-01  0.6631E-01
      4.489  0.1891E-01  0.7946E-01  0.5465E-01
      4.578  0.2990E-01  0.1126E+00  0.1186E+00
      4.668  0.7537E-01  0.1135E+00  0.1749E+00
      4.757  0.7504E-01  0.1038E+00  0.2038E+00
      4.847  0.3675E-01  0.6112E-01  0.1165E+00
      4.936  0.1118E-01  0.1660E-01  0.2259E-01
      5.026  0.7197E-02  0.3145E-01  0.4992E-01
      5.115  0.2320E-01  0.7138E-01  0.1044E+00
      5.205  0.2060E-01  0.5466E-01  0.7319E-01
      5.294  0.1948E-01  0.4247E-01  0.5889E-01
      5.384  0.4902E-01  0.7738E-01  0.1377E+00
      5.473  0.4962E-01  0.1093E+00  0.1489E+00
      5.563  0.1278E-01  0.6738E-01  0.6582E-01
      5.652  0.1358E-02  0.3153E-01  0.3491E-01
      5.742  0.6282E-02  0.1462E-01  0.1517E-01
      5.831  0.4253E-01  0.2741E-01  0.4813E-01
      5.921  0.7302E-01  0.4636E-01  0.7471E-01
      6.010  0.4126E-01  0.5429E-01  0.6480E-01
      6.100  0.3315E-01  0.6300E-01  0.7750E-01
      6.189  0.2807E-01  0.3929E-01  0.5242E-01
      6.279  0.6145E-01  0.8288E-01  0.1046E+00
      6.368  0.6586E-01  0.9509E-01  0.1015E+00
      6.458  0.5098E-01  0.7960E-01  0.6786E-01
      6.548  0.1871E-01  0.3768E-01  0.2551E-01
      6.637  0.2675E-01  0.1057E-01  0.2450E-01
      6.727  0.8674E-01  0.3603E-01  0.6211E-01
      6.816  0.8131E-01  0.2927E-01  0.4082E-01
      6.906  0.8784E-01  0.1232E-01  0.2787E-01
      6.995  0.7970E-01  0.8652E-02  0.2070E-01
      7.085  0.4934E-01  0.9829E-02  0.1991E-01
      7.174  0.1023E+00  0.2465E-01  0.4173E-01
      7.264  0.1975E+00  0.7824E-01  0.9797E-01
      7.353  0.2741E+00  0.1508E+00  0.1837E+00
      7.443  0.3035E+00  0.1437E+00  0.2105E+00
      7.532  0.2310E+00  0.7247E-01  0.1487E+00
      7.622  0.2026E+00  0.6126E-01  0.1365E+00
      7.711  0.1271E+00  0.5961E-01  0.9297E-01
      7.801  0.4313E-01  0.3314E-01  0.4135E-01
      7.890  0.4148E-01  0.4301E-01  0.4253E-01
      7.980  0.1081E+00  0.9549E-01  0.9007E-01
      8.069  0.1373E+00  0.8399E-01  0.1090E+00
      8.159  0.1075E+00  0.6416E-01  0.7051E-01
      8.248  0.9365E-01  0.9795E-01  0.6640E-01
      8.338  0.9727E-01  0.1198E+00  0.7568E-01
      8.427  0.3707E-01  0.5366E-01  0.3698E-01
      8.517  0.1694E-01  0.2084E-01  0.1829E-01
      8.606  0.4031E-01  0.5860E-01  0.5388E-01
      8.696  0.9443E-01  0.1590E+00  0.1138E+00
      8.785  0.1165E+00  0.1603E+00  0.1049E+00
      8.875  0.7656E-01  0.1056E+00  0.6207E-01
      8.964  0.4353E-01  0.1014E+00  0.5356E-01
      9.054  0.4459E-01  0.1106E+00  0.6127E-01
      9.144  0.3193E-01  0.1041E+00  0.5271E-01
      9.233  0.4082E-01  0.1842E+00  0.8832E-01
      9.323  0.3939E-01  0.1506E+00  0.8416E-01
      9.412  0.2835E-01  0.9087E-01  0.5054E-01
      9.502  0.5076E-01  0.1064E+00  0.5896E-01
      9.591  0.5837E-01  0.8281E-01  0.6012E-01
      9.681  0.5418E-01  0.8189E-01  0.6173E-01
      9.770  0.5512E-01  0.1340E+00  0.6630E-01
      9.860  0.7954E-01  0.1569E+00  0.7744E-01
      9.949  0.3458E-01  0.6959E-01  0.4437E-01
     10.039  0.8860E-02  0.9405E-01  0.5306E-01
     10.128  0.4091E-01  0.9736E-01  0.5443E-01
     10.218  0.8809E-01  0.7638E-01  0.5038E-01
     10.307  0.7687E-01  0.9155E-01  0.5331E-01
     10.397  0.7100E-01  0.8637E-01  0.4794E-01
     10.486  0.8087E-01  0.1148E+00  0.7198E-01
     10.576  0.9453E-01  0.1367E+00  0.8448E-01
     10.665  0.9646E-01  0.1159E+00  0.8471E-01
     10.755  0.7679E-01  0.1000E+00  0.6929E-01
     10.844  0.5241E-01  0.6812E-01  0.5303E-01
     10.934  0.5241E-01  0.6781E-01  0.5228E-01
     11.023  0.6527E-01  0.5529E-01  0.3864E-01
     11.113  0.8046E-01  0.6408E-01  0.5050E-01
     11.202  0.9072E-01  0.1135E+00  0.6480E-01
     11.292  0.5737E-01  0.1331E+00  0.6676E-01
     11.381  0.4949E-01  0.1256E+00  0.6195E-01
     11.471  0.6683E-01  0.8371E-01  0.4139E-01
     11.561  0.7022E-01  0.6795E-01  0.4627E-01
     11.650  0.6529E-01  0.1199E+00  0.8207E-01
     11.740  0.8187E-01  0.1574E+00  0.1110E+00
     11.829  0.9944E-01  0.2024E+00  0.1197E+00
     11.919  0.5751E-01  0.1727E+00  0.9734E-01
     12.008  0.2422E-01  0.9227E-01  0.4280E-01
     12.098  0.3162E-01  0.9920E-01  0.4328E-01
     12.187  0.1991E-01  0.8653E-01  0.4346E-01
     12.277  0.1574E-01  0.1093E+00  0.5488E-01
     12.366  0.2180E-01  0.1471E+00  0.9724E-01
     12.456  0.2943E-01  0.1050E+00  0.7909E-01
     12.545  0.6041E-01  0.1114E+00  0.6162E-01
     12.635  0.6057E-01  0.1471E+00  0.6840E-01
     12.724  0.4819E-01  0.1085E+00  0.7028E-01
     12.814  0.6053E-01  0.1678E+00  0.1035E+00
     12.903  0.4556E-01  0.1789E+00  0.1004E+00
     12.993  0.3087E-01  0.1585E+00  0.1010E+00
     13.082  0.2719E-01  0.1569E+00  0.1030E+00
     13.172  0.3336E-01  0.1511E+00  0.9936E-01
     13.261  0.3299E-01  0.1548E+00  0.8761E-01
     13.351  0.2186E-01  0.1164E+00  0.6389E-01
     13.440  0.2715E-01  0.1317E+00  0.8150E-01
     13.530  0.5815E-01  0.1603E+00  0.1034E+00
     13.619  0.9976E-01  0.2690E+00  0.1629E+00
     13.709  0.6839E-01  0.2704E+00  0.1601E+00
     13.798  0.1659E-01  0.1249E+00  0.9496E-01
     13.888  0.9976E-02  0.6872E-01  0.5430E-01
     13.977  0.1805E-01  0.9885E-01  0.5952E-01
     14.067  0.1773E-01  0.1102E+00  0.4797E-01
     14.157  0.2398E-01  0.1676E+00  0.8469E-01
     14.246  0.1695E-01  0.1236E+00  0.7654E-01
     14.336  0.1785E-01  0.1464E+00  0.8380E-01
     14.425  0.2804E-01  0.1619E+00  0.1065E+00
     14.515  0.3164E-01  0.1434E+00  0.9510E-01
     14.604  0.1889E-01  0.1418E+00  0.8937E-01
     14.694  0.1890E-01  0.1312E+00  0.8922E-01
     14.783  0.1327E-01  0.8542E-01  0.5799E-01
     14.873  0.6542E-02  0.3812E-01  0.3439E-01
     14.962  0.1794E-02  0.6573E-02  0.7097E-02
     15.052 -0.1266E-03 -0.1064E-02 -0.1000E-02
     15.141 -0.5837E-04 -0.2267E-03 -0.2098E-03
     15.231 -0.2267E-05 -0.6922E-05 -0.6403E-05
     15.320 -0.1623E-07 -0.4337E-07 -0.4108E-07
     15.410 -0.2265E-10 -0.5630E-10 -0.5473E-10
     15.499 -0.6232E-14 -0.1491E-13 -0.1478E-13
     15.589 -0.3654E-18 -0.7467E-18 -0.7972E-18
     15.678  0.0000E+00  0.0000E+00  0.0000E+00
     15.768  0.0000E+00  0.0000E+00  0.0000E+00
     15.857  0.0000E+00  0.0000E+00  0.0000E+00
     15.947  0.0000E+00  0.0000E+00  0.0000E+00
     16.036  0.0000E+00  0.0000E+00  0.0000E+00
     16.126  0.0000E+00  0.0000E+00  0.0000E+00
     16.12591612    -10.72941966  301      0.80376003      1.00000000
    -10.729  0.0000E+00  0.0000E+00  0.0000E+00
    -10.640  0.0000E+00  0.0000E+00  0.0000E+00
    -10.550  0.0000E+00  0.0000E+00  0.0000E+00
    -10.461  0.0000E+00  0.0000E+00  0.0000E+00
    -10.371 -0.1782E-34 -0.2223E-35 -0.3065E-37
    -10.282 -0.3653E-28 -0.4556E-29 -0.6282E-31
    -10.192 -0.1488E-22 -0.1855E-23 -0.2558E-25
    -10.103 -0.1199E-17 -0.1495E-18 -0.2061E-20
    -10.013 -0.1827E-13 -0.2279E-14 -0.3142E-16
     -9.924 -0.5543E-10 -0.6913E-11 -0.9532E-13
     -9.834 -0.3169E-07 -0.3951E-08 -0.5451E-10
     -9.745 -0.3187E-05 -0.3975E-06 -0.5515E-08
     -9.655 -0.4258E-04 -0.5326E-05 -0.8342E-07
     -9.566  0.1179E-03  0.1392E-04 -0.2852E-06
     -9.476  0.7851E-03  0.9537E-04 -0.2437E-06
     -9.387  0.3623E-02  0.4875E-03  0.2874E-04
     -9.297  0.5572E-02  0.7565E-03  0.4828E-04
     -9.208  0.3535E-03  0.4233E-04 -0.1343E-05
     -9.118  0.2090E-02  0.3324E-03  0.5568E-04
     -9.029  0.6574E-02  0.1019E-02  0.1550E-03
     -8.939  0.5974E-02  0.9815E-03  0.1936E-03
     -8.850  0.2437E-02  0.5002E-03  0.1609E-03
     -8.760  0.9617E-03  0.6016E-04 -0.5612E-05
     -8.671  0.5287E-02  0.4417E-03 -0.1634E-04
     -8.581  0.2653E-01  0.3196E-02  0.5577E-03
     -8.491  0.2033E-01  0.3005E-02  0.9472E-03
     -8.402  0.8168E-03  0.2769E-03  0.1940E-03
     -8.312  0.2883E-01  0.3664E-02  0.6778E-03
     -8.223  0.3863E-01  0.4775E-02  0.8390E-03
     -8.133  0.1720E-01  0.2451E-02  0.5398E-03
     -8.044  0.3152E-03  0.2518E-03  0.1021E-03
     -7.954  0.2871E-02  0.5980E-03  0.3733E-03
     -7.865  0.3007E-01  0.5546E-02  0.2708E-02
     -7.775  0.4527E-01  0.8565E-02  0.4226E-02
     -7.686  0.1480E-01  0.2485E-02  0.1449E-02
     -7.596  0.4039E-01  0.5099E-02  0.3295E-02
     -7.507  0.4993E-01  0.5246E-02  0.3800E-02
     -7.417  0.3010E-02  0.1022E-03  0.2736E-03
     -7.328  0.2927E-01  0.2264E-02  0.1007E-02
     -7.238  0.7491E-01  0.1033E-01  0.7715E-02
     -7.149  0.8710E-01  0.1667E-01  0.1543E-01
     -7.059  0.3270E-01  0.7483E-02  0.8140E-02
     -6.970  0.1555E-01  0.3606E-02  0.4912E-02
     -6.880  0.5089E-01  0.6598E-02  0.8151E-02
     -6.791  0.6176E-01  0.6652E-02  0.5468E-02
     -6.701  0.3830E-01  0.7225E-02  0.8476E-02
     -6.612  0.1085E+00  0.2352E-01  0.4327E-01
     -6.522  0.8715E-01  0.1799E-01  0.5867E-01
     -6.433  0.7033E-01  0.6742E-02  0.6119E-01
     -6.343  0.1473E+00  0.1196E-01  0.8787E-01
     -6.254  0.1257E+00  0.2211E-01  0.6372E-01
     -6.164  0.1047E+00  0.1999E-01  0.8508E-01
     -6.074  0.1906E+00  0.2894E-01  0.1599E+00
     -5.985  0.1802E+00  0.3548E-01  0.2039E+00
     -5.895  0.1216E+00  0.3375E-01  0.1865E+00
     -5.806  0.6498E-01  0.2652E-01  0.1707E+00
     -5.716  0.1046E+00  0.3178E-01  0.2185E+00
     -5.627  0.2354E+00  0.4637E-01  0.3269E+00
     -5.537  0.1751E+00  0.4546E-01  0.2977E+00
     -5.448  0.1119E+00  0.3302E-01  0.2223E+00
     -5.358  0.6952E-01  0.2257E-01  0.2371E+00
     -5.269  0.1655E+00  0.4200E-01  0.5470E+00
     -5.179  0.3369E+00  0.6921E-01  0.8883E+00
     -5.090  0.2813E+00  0.6961E-01  0.1009E+01
     -5.000  0.1728E+00  0.6205E-01  0.1049E+01
     -4.911  0.1822E+00  0.5518E-01  0.9786E+00
     -4.821  0.1178E+00  0.4249E-01  0.6187E+00
     -4.732  0.9168E-01  0.3910E-01  0.7560E+00
     -4.642  0.9654E-01  0.4284E-01  0.6692E+00
     -4.553  0.5288E-01  0.2621E-01  0.4051E+00
     -4.463  0.2726E-01  0.1704E-01  0.4230E+00
     -4.374  0.3213E-01  0.3719E-01  0.7826E+00
     -4.284  0.4603E-01  0.5460E-01  0.1040E+01
     -4.195  0.3298E-01  0.4150E-01  0.8017E+00
     -4.105  0.1977E-01  0.3479E-01  0.7882E+00
     -4.016  0.1523E-01  0.4495E-01  0.8933E+00
     -3.926  0.2461E-01  0.4514E-01  0.9036E+00
     -3.837  0.4068E-01  0.4388E-01  0.1109E+01
     -3.747  0.2819E-01  0.2896E-01  0.8717E+00
     -3.658  0.1478E-01  0.2007E-01  0.7969E+00
     -3.568  0.2586E-01  0.2909E-01  0.9818E+00
     -3.478  0.4966E-01  0.4268E-01  0.1101E+01
     -3.389  0.4719E-01  0.4164E-01  0.1093E+01
     -3.299  0.3061E-01  0.2746E-01  0.1049E+01
     -3.210  0.3113E-01  0.2686E-01  0.1133E+01
     -3.120  0.2866E-01  0.2554E-01  0.1078E+01
     -3.031  0.2224E-01  0.2508E-01  0.1074E+01
     -2.941  0.2590E-01  0.3373E-01  0.1413E+01
     -2.852  0.5478E-01  0.5453E-01  0.1694E+01
     -2.762  0.5407E-01  0.6497E-01  0.1719E+01