  96  96   1   0
  0.3064654E+02  0.1051012E-08  0.1052760E-08  0.3073990E-08  0.0000000E+00
  1.000000000000000E-004
  CAR 
 unknown system                          
     15.52935406    -11.09576794  301     -0.81590790      1.00000000
    -11.096  0.0000E+00  0.0000E+00
    -11.007  0.0000E+00  0.0000E+00
    -10.918  0.0000E+00  0.0000E+00
    -10.830  0.0000E+00  0.0000E+00
    -10.741 -0.5835E-31 -0.5179E-32
    -10.652 -0.9314E-25 -0.8266E-26
    -10.563 -0.3036E-19 -0.2694E-20
    -10.475 -0.1934E-14 -0.1716E-15
    -10.386 -0.2592E-10 -0.2300E-11
    -10.297 -0.6829E-07 -0.6063E-08
    -10.208 -0.3484E-04 -0.3098E-05
    -10.120 -0.3221E-02 -0.2889E-03
    -10.031 -0.4208E-01 -0.4024E-02
     -9.942  0.6926E-01  0.2123E-02
     -9.853  0.8893E+00  0.8105E-01
     -9.765  0.4353E+01  0.4674E+00
     -9.676  0.4378E+01  0.8559E+00
     -9.587  0.5230E+00  0.9023E+00
     -9.498  0.5359E+01  0.1378E+01
     -9.410  0.6049E+01  0.1915E+01
     -9.321  0.3549E+01  0.2230E+01
     -9.232  0.1664E+01  0.2377E+01
     -9.143  0.3513E+01  0.2689E+01
     -9.055  0.1138E+02  0.3699E+01
     -8.966  0.8124E+01  0.4420E+01
     -8.877  0.3476E+01  0.4729E+01
     -8.788  0.7790E+01  0.5420E+01
     -8.700  0.1354E+02  0.6621E+01
     -8.611  0.4349E+01  0.7007E+01
     -8.522  0.1510E+01  0.7141E+01
     -8.433  0.6026E+01  0.7676E+01
     -8.345  0.1345E+02  0.8870E+01
     -8.256  0.1460E+02  0.1017E+02
     -8.167  0.1002E+02  0.1106E+02
     -8.078  0.9027E+01  0.1186E+02
     -7.990  0.8249E+01  0.1259E+02
     -7.901  0.6868E+01  0.1320E+02
     -7.812  0.1411E+02  0.1445E+02
     -7.723  0.1425E+02  0.1572E+02
     -7.635  0.1818E+02  0.1733E+02
     -7.546  0.1426E+02  0.1859E+02
     -7.457  0.1317E+02  0.1976E+02
     -7.368  0.1764E+02  0.2133E+02
     -7.280  0.1101E+02  0.2231E+02
     -7.191  0.8204E+01  0.2303E+02
     -7.102  0.1616E+02  0.2447E+02
     -7.013  0.2327E+02  0.2653E+02
     -6.924  0.2446E+02  0.2870E+02
     -6.836  0.2448E+02  0.3088E+02
     -6.747  0.3264E+02  0.3377E+02
     -6.658  0.2629E+02  0.3611E+02
     -6.569  0.1902E+02  0.3780E+02
     -6.481  0.3427E+02  0.4084E+02
     -6.392  0.4879E+02  0.4517E+02
     -6.303  0.5463E+02  0.5001E+02
     -6.214  0.5920E+02  0.5527E+02
     -6.126  0.6316E+02  0.6087E+02
     -6.037  0.6282E+02  0.6645E+02
     -5.948  0.6562E+02  0.7227E+02
     -5.859  0.7767E+02  0.7917E+02
     -5.771  0.8538E+02  0.8674E+02
     -5.682  0.8711E+02  0.9448E+02
     -5.593  0.9435E+02  0.1028E+03
     -5.504  0.9539E+02  0.1113E+03
     -5.416  0.9291E+02  0.1196E+03
     -5.327  0.9893E+02  0.1283E+03
     -5.238  0.1040E+03  0.1376E+03
     -5.149  0.1099E+03  0.1473E+03
     -5.061  0.1164E+03  0.1577E+03
     -4.972  0.1241E+03  0.1687E+03
     -4.883  0.1245E+03  0.1797E+03
     -4.794  0.1291E+03  0.1912E+03
     -4.706  0.1406E+03  0.2037E+03
     -4.617  0.1498E+03  0.2169E+03
     -4.528  0.1518E+03  0.2304E+03
     -4.439  0.1539E+03  0.2441E+03
     -4.351  0.1552E+03  0.2578E+03
     -4.262  0.1550E+03  0.2716E+03
     -4.173  0.1812E+03  0.2877E+03
     -4.084  0.2174E+03  0.3070E+03
     -3.996  0.2212E+03  0.3266E+03
     -3.907  0.2237E+03  0.3465E+03
     -3.818  0.2396E+03  0.3677E+03
     -3.729  0.2645E+03  0.3912E+03
     -3.641  0.3117E+03  0.4189E+03
     -3.552  0.3517E+03  0.4501E+03
     -3.463  0.3814E+03  0.4839E+03
     -3.374  0.3759E+03  0.5173E+03
     -3.286  0.3730E+03  0.5504E+03
     -3.197  0.3608E+03  0.5824E+03
     -3.108  0.2748E+03  0.6068E+03
     -3.019  0.2777E+03  0.6315E+03
     -2.931  0.3246E+03  0.6603E+03
     -2.842  0.2803E+03  0.6851E+03
     -2.753  0.2570E+03  0.7079E+03
     -2.664  0.2819E+03  0.7330E+03
     -2.576  0.3138E+03  0.7608E+03
     -2.487  0.3047E+03  0.7879E+03
     -2.398  0.2723E+03  0.8120E+03
     -2.309  0.2328E+03  0.8327E+03
     -2.221  0.2014E+03  0.8506E+03
     -2.132  0.1589E+03  0.8647E+03
     -2.043  0.1371E+03  0.8769E+03
     -1.954  0.1277E+03  0.8882E+03
     -1.866  0.1138E+03  0.8983E+03
     -1.777  0.1133E+03  0.9083E+03
     -1.688  0.1125E+03  0.9183E+03
     -1.599  0.1121E+03  0.9283E+03
     -1.511  0.1101E+03  0.9380E+03
     -1.422  0.1141E+03  0.9482E+03
     -1.333  0.1109E+03  0.9580E+03
     -1.244  0.1013E+03  0.9670E+03
     -1.156  0.9570E+02  0.9755E+03
     -1.067  0.9344E+02  0.9838E+03
     -0.978  0.9792E+02  0.9925E+03
     -0.889  0.9954E+02  0.1001E+04
     -0.801  0.9014E+02  0.1009E+04
     -0.712  0.7802E+02  0.1016E+04
     -0.623  0.6326E+02  0.1022E+04
     -0.534  0.5263E+02  0.1027E+04
     -0.446  0.4902E+02  0.1031E+04
     -0.357  0.4557E+02  0.1035E+04
     -0.268  0.4119E+02  0.1039E+04
     -0.179  0.4524E+02  0.1043E+04
     -0.091  0.4427E+02  0.1047E+04
     -0.002  0.3545E+02  0.1050E+04
      0.087  0.3184E+02  0.1052E+04
      0.176  0.2414E+02  0.1055E+04
      0.264  0.2135E+02  0.1057E+04
      0.353  0.2714E+02  0.1059E+04
      0.442  0.3619E+02  0.1062E+04
      0.531  0.3859E+02  0.1066E+04
      0.619  0.3682E+02  0.1069E+04
      0.708  0.3566E+02  0.1072E+04
      0.797  0.3424E+02  0.1075E+04
      0.886  0.2256E+02  0.1077E+04
      0.974  0.2249E+02  0.1079E+04
      1.063  0.3001E+02  0.1082E+04
      1.152  0.2923E+02  0.1084E+04
      1.241  0.2903E+02  0.1087E+04
      1.329  0.2897E+02  0.1089E+04
      1.418  0.3495E+02  0.1093E+04
      1.507  0.3660E+02  0.1096E+04
      1.596  0.2811E+02  0.1098E+04
      1.684  0.2606E+02  0.1101E+04
      1.773  0.2863E+02  0.1103E+04
      1.862  0.3238E+02  0.1106E+04
      1.951  0.3558E+02  0.1109E+04
      2.039  0.3049E+02  0.1112E+04
      2.128  0.2701E+02  0.1114E+04
      2.217  0.2725E+02  0.1117E+04
      2.306  0.2681E+02  0.1119E+04
      2.394  0.2742E+02  0.1122E+04
      2.483  0.2324E+02  0.1124E+04
      2.572  0.2655E+02  0.1126E+04
      2.661  0.2660E+02  0.1128E+04
      2.749  0.2043E+02  0.1130E+04
      2.838  0.1726E+02  0.1132E+04
      2.927  0.2021E+02  0.1133E+04
      3.016  0.2017E+02  0.1135E+04
      3.104  0.2673E+02  0.1138E+04
      3.193  0.2194E+02  0.1140E+04
      3.282  0.2103E+02  0.1141E+04
      3.371  0.2410E+02  0.1144E+04
      3.459  0.2392E+02  0.1146E+04
      3.548  0.2328E+02  0.1148E+04
      3.637  0.1986E+02  0.1149E+04
      3.726  0.1807E+02  0.1151E+04
      3.814  0.1964E+02  0.1153E+04
      3.903  0.2113E+02  0.1155E+04
      3.992  0.1993E+02  0.1156E+04
      4.081  0.1935E+02  0.1158E+04
      4.169  0.2150E+02  0.1160E+04
      4.258  0.3204E+02  0.1163E+04
      4.347  0.3584E+02  0.1166E+04
      4.436  0.3393E+02  0.1169E+04
      4.524  0.3349E+02  0.1172E+04
      4.613  0.3044E+02  0.1175E+04
      4.702  0.3648E+02  0.1178E+04
      4.791  0.4578E+02  0.1182E+04
      4.879  0.4062E+02  0.1186E+04
      4.968  0.4446E+02  0.1190E+04
      5.057  0.4009E+02  0.1193E+04
      5.146  0.3368E+02  0.1196E+04
      5.234  0.4291E+02  0.1200E+04
      5.323  0.5546E+02  0.1205E+04
      5.412  0.6053E+02  0.1210E+04
      5.501  0.5543E+02  0.1215E+04
      5.589  0.4765E+02  0.1219E+04
      5.678  0.4534E+02  0.1223E+04
      5.767  0.4242E+02  0.1227E+04
      5.856  0.4370E+02  0.1231E+04
      5.944  0.5048E+02  0.1236E+04
      6.033  0.5800E+02  0.1241E+04
      6.122  0.5705E+02  0.1246E+04
      6.211  0.4042E+02  0.1249E+04
      6.299  0.4582E+02  0.1253E+04
      6.388  0.5329E+02  0.1258E+04
      6.477  0.5046E+02  0.1263E+04
      6.566  0.4764E+02  0.1267E+04
      6.654  0.5008E+02  0.1271E+04
      6.743  0.5341E+02  0.1276E+04
      6.832  0.4398E+02  0.1280E+04
      6.921  0.4936E+02  0.1284E+04
      7.009  0.5324E+02  0.1289E+04
      7.098  0.5293E+02  0.1294E+04
      7.187  0.4756E+02  0.1298E+04
      7.276  0.4538E+02  0.1302E+04
      7.364  0.4754E+02  0.1306E+04
      7.453  0.4606E+02  0.1310E+04
      7.542  0.5203E+02  0.1315E+04
      7.631  0.6693E+02  0.1321E+04
      7.719  0.6064E+02  0.1326E+04
      7.808  0.5253E+02  0.1331E+04
      7.897  0.5277E+02  0.1336E+04
      7.986  0.5333E+02  0.1340E+04
      8.074  0.6115E+02  0.1346E+04
      8.163  0.6956E+02  0.1352E+04
      8.252  0.6299E+02  0.1358E+04
      8.341  0.5100E+02  0.1362E+04
      8.429  0.5615E+02  0.1367E+04
      8.518  0.5883E+02  0.1372E+04
      8.607  0.6461E+02  0.1378E+04
      8.696  0.7028E+02  0.1384E+04
      8.784  0.6899E+02  0.1390E+04
      8.873  0.6687E+02  0.1396E+04
      8.962  0.6027E+02  0.1402E+04
      9.051  0.5989E+02  0.1407E+04
      9.139  0.5993E+02  0.1412E+04
      9.228  0.5618E+02  0.1417E+04
      9.317  0.6550E+02  0.1423E+04
      9.406  0.6602E+02  0.1429E+04
      9.494  0.5712E+02  0.1434E+04
      9.583  0.5941E+02  0.1439E+04
      9.672  0.5577E+02  0.1444E+04
      9.761  0.5924E+02  0.1450E+04
      9.849  0.7584E+02  0.1456E+04
      9.938  0.7776E+02  0.1463E+04
     10.027  0.7402E+02  0.1470E+04
     10.116  0.6877E+02  0.1476E+04
     10.204  0.6698E+02  0.1482E+04
     10.293  0.7220E+02  0.1488E+04
     10.382  0.7912E+02  0.1495E+04
     10.471  0.7336E+02  0.1502E+04
     10.559  0.6830E+02  0.1508E+04
     10.648  0.6489E+02  0.1514E+04
     10.737  0.6759E+02  0.1520E+04
     10.826  0.7642E+02  0.1526E+04
     10.914  0.7763E+02  0.1533E+04
     11.003  0.7705E+02  0.1540E+04
     11.092  0.7091E+02  0.1546E+04
     11.181  0.6997E+02  0.1553E+04
     11.269  0.6906E+02  0.1559E+04
     11.358  0.7270E+02  0.1565E+04
     11.447  0.7984E+02  0.1572E+04
     11.536  0.7754E+02  0.1579E+04
     11.624  0.7322E+02  0.1586E+04
     11.713  0.7707E+02  0.1592E+04
     11.802  0.8183E+02  0.1600E+04
     11.891  0.7596E+02  0.1606E+04
     11.979  0.7307E+02  0.1613E+04
     12.068  0.7549E+02  0.1620E+04
     12.157  0.7645E+02  0.1626E+04
     12.246  0.7388E+02  0.1633E+04
     12.334  0.6696E+02  0.1639E+04
     12.423  0.6576E+02  0.1645E+04
     12.512  0.7385E+02  0.1651E+04
     12.601  0.7804E+02  0.1658E+04
     12.689  0.7890E+02  0.1665E+04
     12.778  0.8093E+02  0.1672E+04
     12.867  0.8573E+02  0.1680E+04
     12.956  0.8571E+02  0.1688E+04
     13.044  0.8642E+02  0.1695E+04
     13.133  0.8389E+02  0.1703E+04
     13.222  0.7829E+02  0.1710E+04
     13.311  0.8477E+02  0.1717E+04
     13.399  0.8378E+02  0.1725E+04
     13.488  0.7984E+02  0.1732E+04
     13.577  0.7828E+02  0.1739E+04
     13.666  0.7154E+02  0.1745E+04
     13.754  0.7056E+02  0.1751E+04
     13.843  0.7071E+02  0.1758E+04
     13.932  0.6617E+02  0.1763E+04
     14.021  0.6603E+02  0.1769E+04
     14.109  0.6103E+02  0.1775E+04
     14.198  0.3953E+02  0.1778E+04
     14.287  0.1781E+02  0.1780E+04
     14.376  0.2762E+01  0.1780E+04
     14.464 -0.4413E+00  0.1780E+04
     14.553 -0.1067E+00  0.1780E+04
     14.642 -0.4443E-02  0.1780E+04
     14.731 -0.3943E-04  0.1780E+04
     14.819 -0.7184E-07  0.1780E+04
     14.908 -0.2648E-10  0.1780E+04
     14.997 -0.1876E-14  0.1780E+04
     15.086  0.0000E+00  0.1780E+04
     15.174  0.0000E+00  0.1780E+04
     15.263  0.0000E+00  0.1780E+04
     15.352  0.0000E+00  0.1780E+04
     15.441  0.0000E+00  0.1780E+04
     15.529  0.0000E+00  0.1780E+04
     15.52935406    -11.09576794  301     -0.81590790      1.00000000
    -11.096  0.0000E+00  0.0000E+00  0.0000E+00
    -11.007  0.0000E+00  0.0000E+00  0.0000E+00
    -10.918  0.0000E+00  0.0000E+00  0.0000E+00
    -10.830  0.0000E+00  0.0000E+00  0.0000E+00
    -10.741 -0.6921E-34 -0.9445E-35 -0.2166E-36
    -10.652 -0.1105E-27 -0.1508E-28 -0.3458E-30
    -10.563 -0.3600E-22 -0.4914E-23 -0.1127E-24
    -10.475 -0.2294E-17 -0.3131E-18 -0.7180E-20
    -10.386 -0.3074E-13 -0.4195E-14 -0.9622E-16
    -10.297 -0.8100E-10 -0.1105E-10 -0.2536E-12
    -10.208 -0.4133E-07 -0.5640E-08 -0.1294E-09
    -10.120 -0.3820E-05 -0.5216E-06 -0.1204E-07
    -10.031 -0.4994E-04 -0.6864E-05 -0.1718E-06
     -9.942  0.8132E-04  0.9609E-05 -0.2330E-06
     -9.853  0.1055E-02  0.1434E-03  0.3094E-05
     -9.765  0.5190E-02  0.7626E-03  0.3402E-04
     -9.676  0.5204E-02  0.7663E-03  0.3443E-04
     -9.587  0.6524E-03  0.1046E-03  0.7624E-05
     -9.498  0.6830E-02  0.1145E-02  0.1008E-03
     -9.410  0.7408E-02  0.1275E-02  0.1230E-03
     -9.321  0.3997E-02  0.7589E-03  0.1009E-03
     -9.232  0.2699E-02  0.3996E-03  0.4277E-04
     -9.143  0.1268E-01  0.1472E-02  0.8299E-04
     -9.055  0.3484E-01  0.4499E-02  0.3380E-03
     -8.966  0.1533E-01  0.2556E-02  0.4142E-03
     -8.877  0.2972E-02  0.8507E-03  0.2600E-03
     -8.788  0.2230E-01  0.3330E-02  0.5009E-03
     -8.700  0.3492E-01  0.5713E-02  0.9213E-03
     -8.611  0.8713E-02  0.1998E-02  0.4136E-03
     -8.522 -0.8599E-03  0.2288E-03  0.1912E-03
     -8.433  0.7035E-02  0.2074E-02  0.7443E-03
     -8.345  0.3200E-01  0.7340E-02  0.1911E-02
     -8.256  0.4089E-01  0.7975E-02  0.2285E-02
     -8.167  0.2779E-01  0.4544E-02  0.1776E-02
     -8.078  0.2856E-01  0.4113E-02  0.2455E-02
     -7.990  0.3189E-01  0.3473E-02  0.1905E-02
     -7.901  0.2572E-01  0.4216E-02  0.1823E-02
     -7.812  0.6098E-01  0.1041E-01  0.4581E-02
     -7.723  0.5130E-01  0.1014E-01  0.4834E-02
     -7.635  0.4382E-01  0.9190E-02  0.5025E-02
     -7.546  0.2306E-01  0.6203E-02  0.3980E-02
     -7.457  0.3456E-01  0.8898E-02  0.4916E-02
     -7.368  0.7396E-01  0.1447E-01  0.6209E-02
     -7.280  0.4259E-01  0.9223E-02  0.4348E-02
     -7.191  0.2090E-01  0.6409E-02  0.4647E-02
     -7.102  0.3439E-01  0.1108E-01  0.1035E-01
     -7.013  0.6563E-01  0.1792E-01  0.1807E-01
     -6.924  0.7633E-01  0.1606E-01  0.1689E-01
     -6.836  0.4852E-01  0.1392E-01  0.1580E-01
     -6.747  0.6909E-01  0.1940E-01  0.2283E-01
     -6.658  0.5347E-01  0.1492E-01  0.2013E-01
     -6.569  0.3398E-01  0.1145E-01  0.1751E-01
     -6.481  0.6170E-01  0.2313E-01  0.5207E-01
     -6.392  0.1108E+00  0.2782E-01  0.7955E-01
     -6.303  0.1380E+00  0.2439E-01  0.6719E-01
     -6.214  0.1398E+00  0.2167E-01  0.7855E-01
     -6.126  0.1271E+00  0.2322E-01  0.9618E-01
     -6.037  0.9052E-01  0.2911E-01  0.1010E+00
     -5.948  0.9971E-01  0.3409E-01  0.1114E+00
     -5.859  0.1391E+00  0.4202E-01  0.1400E+00
     -5.771  0.1540E+00  0.4849E-01  0.1686E+00
     -5.682  0.1235E+00  0.4323E-01  0.2013E+00
     -5.593  0.1228E+00  0.4399E-01  0.2410E+00
     -5.504  0.1496E+00  0.4534E-01  0.2344E+00
     -5.416  0.1737E+00  0.4612E-01  0.2226E+00
     -5.327  0.1453E+00  0.5687E-01  0.2958E+00
     -5.238  0.7670E-01  0.5492E-01  0.4138E+00
     -5.149  0.5495E-01  0.4876E-01  0.4880E+00
     -5.061  0.7246E-01  0.4450E-01  0.4954E+00
     -4.972  0.7687E-01  0.4285E-01  0.5323E+00
     -4.883  0.5963E-01  0.4024E-01  0.5981E+00
     -4.794  0.6034E-01  0.3701E-01  0.7670E+00
     -4.706  0.6900E-01  0.3739E-01  0.9466E+00
     -4.617  0.5598E-01  0.3888E-01  0.9881E+00
     -4.528  0.3970E-01  0.3796E-01  0.9624E+00
     -4.439  0.2651E-01  0.4029E-01  0.1033E+01
     -4.351  0.2631E-01  0.4226E-01  0.1098E+01
     -4.262  0.2593E-01  0.3819E-01  0.1060E+01
     -4.173  0.3238E-01  0.4195E-01  0.1293E+01
     -4.084  0.3706E-01  0.4349E-01  0.1651E+01
     -3.996  0.3315E-01  0.4244E-01  0.1737E+01
     -3.907  0.3374E-01  0.3814E-01  0.1735E+01
     -3.818  0.2969E-01  0.3112E-01  0.1786E+01
     -3.729  0.3242E-01  0.3511E-01  0.2198E+01
     -3.641  0.4240E-01  0.4495E-01  0.3088E+01
     -3.552  0.3615E-01  0.5289E-01  0.3768E+01
     -3.463  0.5186E-01  0.7597E-01  0.4571E+01
     -3.374  0.6567E-01  0.8937E-01  0.5592E+01
     -3.286  0.5389E-01  0.7825E-01  0.6263E+01
     -3.197  0.4556E-01  0.7304E-01  0.5487E+01
     -3.108  0.3613E-01  0.7096E-01  0.3878E+01
     -3.019  0.4288E-01  0.8083E-01  0.3902E+01
     -2.931  0.4778E-01  0.8428E-01  0.4662E+01
     -2.842  0.4680E-01  0.7686E-01  0.4540E+01
     -2.753  0.4110E-01  0.6597E-01  0.4398E+01
     -2.664  0.3850E-01  0.5572E-01  0.4266E+01
     -2.576  0.4846E-01  0.5525E-01  0.4081E+01
     -2.487  0.4691E-01  0.5508E-01  0.3282E+01
     -2.398  0.4813E-01  0.6051E-01  0.2789E+01
     -2.309  0.4303E-01  0.6816E-01  0.2737E+01
     -2.221  0.3957E-01  0.7026E-01  0.2377E+01
     -2.132  0.3464E-01  0.5092E-01  0.1631E+01
     -2.043  0.3218E-01  0.4360E-01  0.1372E+01
     -1.954  0.2605E-01  0.5352E-01  0.1196E+01
     -1.866  0.2075E-01  0.5203E-01  0.9713E+00
     -1.777  0.2515E-01  0.5389E-01  0.8089E+00
     -1.688  0.3584E-01  0.5301E-01  0.6092E+00
     -1.599  0.2981E-01  0.5432E-01  0.5552E+00
     -1.511  0.2452E-01  0.5630E-01  0.5350E+00
     -1.422  0.2574E-01  0.6004E-01  0.5624E+00
     -1.333  0.3489E-01  0.5781E-01  0.5785E+00
     -1.244  0.4141E-01  0.5625E-01  0.5850E+00
     -1.156  0.3525E-01  0.5169E-01  0.5116E+00
     -1.067  0.2758E-01  0.4657E-01  0.4572E+00
     -0.978  0.3236E-01  0.4926E-01  0.4941E+00
     -0.889  0.3970E-01  0.5535E-01  0.4448E+00
     -0.801  0.3393E-01  0.6183E-01  0.4176E+00
     -0.712  0.3134E-01  0.5992E-01  0.3785E+00
     -0.623  0.2411E-01  0.5839E-01  0.2862E+00
     -0.534  0.2039E-01  0.5386E-01  0.1869E+00
     -0.446  0.1800E-01  0.5252E-01  0.1369E+00
     -0.357  0.2465E-01  0.5617E-01  0.1501E+00
     -0.268  0.2855E-01  0.5665E-01  0.1481E+00
     -0.179  0.4339E-01  0.6371E-01  0.1766E+00
     -0.091  0.4472E-01  0.6299E-01  0.1534E+00
     -0.002  0.3135E-01  0.4830E-01  0.1077E+00
      0.087  0.2481E-01  0.3872E-01  0.9459E-01
      0.176  0.1758E-01  0.2801E-01  0.5898E-01
      0.264  0.1800E-01  0.3111E-01  0.4789E-01
      0.353  0.3056E-01  0.5400E-01  0.7122E-01
      0.442  0.4845E-01  0.9086E-01  0.1067E+00
      0.531  0.5222E-01  0.9268E-01  0.1253E+00
      0.619  0.3889E-01  0.9347E-01  0.1096E+00
      0.708  0.4539E-01  0.7644E-01  0.9108E-01
      0.797  0.4454E-01  0.6626E-01  0.7891E-01
      0.886  0.3459E-01  0.4542E-01  0.7038E-01
      0.974  0.2995E-01  0.4375E-01  0.6721E-01
      1.063  0.3092E-01  0.5576E-01  0.6749E-01
      1.152  0.2277E-01  0.6909E-01  0.5791E-01
      1.241  0.2423E-01  0.7097E-01  0.5784E-01
      1.329  0.1636E-01  0.6442E-01  0.5408E-01
      1.418  0.1579E-01  0.8747E-01  0.6559E-01
      1.507  0.2831E-01  0.9283E-01  0.7379E-01
      1.596  0.3369E-01  0.7202E-01  0.6334E-01
      1.684  0.3681E-01  0.7018E-01  0.6351E-01
      1.773  0.3588E-01  0.8380E-01  0.6496E-01
      1.862  0.3666E-01  0.8907E-01  0.6761E-01
      1.951  0.3524E-01  0.1191E+00  0.7027E-01
      2.039  0.2600E-01  0.1024E+00  0.6083E-01
      2.128  0.2472E-01  0.6498E-01  0.4561E-01
      2.217  0.1922E-01  0.6103E-01  0.3758E-01
      2.306  0.1961E-01  0.7381E-01  0.4255E-01
      2.394  0.3279E-01  0.8073E-01  0.5110E-01
      2.483  0.2428E-01  0.5856E-01  0.4497E-01
      2.572  0.1547E-01  0.6481E-01  0.5201E-01
      2.661  0.1541E-01  0.7616E-01  0.4594E-01
      2.749  0.1170E-01  0.8010E-01  0.3431E-01
      2.838  0.1576E-01  0.6694E-01  0.3694E-01
      2.927  0.1867E-01  0.6498E-01  0.4328E-01
      3.016  0.1216E-01  0.5976E-01  0.3914E-01
      3.104  0.2050E-01  0.8420E-01  0.4947E-01
      3.193  0.2588E-01  0.7518E-01  0.4099E-01
      3.282  0.2355E-01  0.7241E-01  0.3839E-01
      3.371  0.2095E-01  0.7147E-01  0.4571E-01
      3.459  0.1662E-01  0.7810E-01  0.4624E-01
      3.548  0.2068E-01  0.8416E-01  0.3440E-01
      3.637  0.2132E-01  0.7064E-01  0.2604E-01
      3.726  0.2061E-01  0.4486E-01  0.2886E-01
      3.814  0.1971E-01  0.4452E-01  0.2863E-01
      3.903  0.1525E-01  0.5347E-01  0.2902E-01
      3.992  0.1231E-01  0.4152E-01  0.2657E-01
      4.081  0.1379E-01  0.3213E-01  0.1988E-01
      4.169  0.2090E-01  0.3387E-01  0.2401E-01
      4.258  0.3093E-01  0.5083E-01  0.3607E-01
      4.347  0.3315E-01  0.5459E-01  0.3876E-01
      4.436  0.3121E-01  0.5930E-01  0.4106E-01
      4.524  0.3167E-01  0.5399E-01  0.3834E-01
      4.613  0.2517E-01  0.4364E-01  0.3485E-01
      4.702  0.4453E-01  0.3925E-01  0.3993E-01
      4.791  0.6804E-01  0.4763E-01  0.4435E-01
      4.879  0.5655E-01  0.5211E-01  0.4765E-01
      4.968  0.8011E-01  0.5025E-01  0.5274E-01
      5.057  0.8774E-01  0.4606E-01  0.5012E-01
      5.146  0.8805E-01  0.3877E-01  0.4850E-01
      5.234  0.1187E+00  0.4714E-01  0.5600E-01
      5.323  0.1252E+00  0.6508E-01  0.7558E-01
      5.412  0.1210E+00  0.7787E-01  0.7667E-01
      5.501  0.1385E+00  0.9219E-01  0.6991E-01
      5.589  0.1364E+00  0.8688E-01  0.6422E-01
      5.678  0.1122E+00  0.8461E-01  0.6962E-01
      5.767  0.1087E+00  0.8369E-01  0.6641E-01
      5.856  0.1108E+00  0.7298E-01  0.5971E-01
      5.944  0.1067E+00  0.9089E-01  0.6537E-01
      6.033  0.1147E+00  0.1131E+00  0.6154E-01
      6.122  0.9321E-01  0.9218E-01  0.4411E-01
      6.211  0.5092E-01  0.6907E-01  0.3622E-01
      6.299  0.5365E-01  0.8948E-01  0.5697E-01
      6.388  0.8970E-01  0.9418E-01  0.6868E-01
      6.477  0.9072E-01  0.8996E-01  0.7090E-01
      6.566  0.8966E-01  0.1164E+00  0.7192E-01
      6.654  0.9728E-01  0.1150E+00  0.6078E-01
      6.743  0.7228E-01  0.9568E-01  0.5115E-01
      6.832  0.5111E-01  0.8706E-01  0.4070E-01
      6.921  0.6039E-01  0.9821E-01  0.4083E-01
      7.009  0.6757E-01  0.9478E-01  0.4736E-01
      7.098  0.7078E-01  0.9663E-01  0.4845E-01
      7.187  0.6856E-01  0.1162E+00  0.4529E-01
      7.276  0.5845E-01  0.1194E+00  0.4429E-01
      7.364  0.4934E-01  0.1088E+00  0.4744E-01
      7.453  0.4406E-01  0.9566E-01  0.4455E-01
      7.542  0.5717E-01  0.8779E-01  0.4595E-01
      7.631  0.7822E-01  0.1100E+00  0.5912E-01
      7.719  0.6901E-01  0.1085E+00  0.5552E-01
      7.808  0.4399E-01  0.9910E-01  0.4885E-01
      7.897  0.2836E-01  0.9639E-01  0.4522E-01
      7.986  0.3506E-01  0.9066E-01  0.4563E-01
      8.074  0.5052E-01  0.9386E-01  0.5256E-01
      8.163  0.5907E-01  0.1062E+00  0.6312E-01
      8.252  0.6237E-01  0.8407E-01  0.6238E-01
      8.341  0.5364E-01  0.8134E-01  0.5502E-01
      8.429  0.6984E-01  0.1027E+00  0.5844E-01
      8.518  0.7062E-01  0.1079E+00  0.5324E-01
      8.607  0.5868E-01  0.1146E+00  0.6079E-01
      8.696  0.6020E-01  0.1329E+00  0.7940E-01
      8.784  0.7470E-01  0.1306E+00  0.7919E-01
      8.873  0.8544E-01  0.1187E+00  0.6889E-01
      8.962  0.7488E-01  0.8793E-01  0.6223E-01
      9.051  0.5900E-01  0.8062E-01  0.6601E-01
      9.139  0.4703E-01  0.9137E-01  0.6672E-01
      9.228  0.4407E-01  0.9978E-01  0.6378E-01
      9.317  0.5417E-01  0.1298E+00  0.7546E-01
      9.406  0.6183E-01  0.1108E+00  0.7409E-01
      9.494  0.6667E-01  0.9178E-01  0.5745E-01
      9.583  0.7605E-01  0.1140E+00  0.6566E-01
      9.672  0.7609E-01  0.1050E+00  0.6248E-01
      9.761  0.5457E-01  0.1034E+00  0.6436E-01
      9.849  0.5204E-01  0.1272E+00  0.7707E-01
      9.938  0.5052E-01  0.1227E+00  0.7106E-01
     10.027  0.5616E-01  0.1165E+00  0.6631E-01
     10.116  0.4205E-01  0.1211E+00  0.7128E-01
     10.204  0.2990E-01  0.1254E+00  0.7245E-01
     10.293  0.4852E-01  0.1264E+00  0.7191E-01
     10.382  0.7089E-01  0.1449E+00  0.7906E-01
     10.471  0.6438E-01  0.1367E+00  0.8436E-01
     10.559  0.5849E-01  0.1137E+00  0.7902E-01
     10.648  0.6334E-01  0.1182E+00  0.7185E-01
     10.737  0.4916E-01  0.1204E+00  0.7571E-01
     10.826  0.5205E-01  0.1355E+00  0.9044E-01
     10.914  0.5742E-01  0.1425E+00  0.7655E-01
     11.003  0.5767E-01  0.1510E+00  0.7059E-01
     11.092  0.4611E-01  0.1339E+00  0.7137E-01
     11.181  0.4272E-01  0.1275E+00  0.7170E-01
     11.269  0.5314E-01  0.1266E+00  0.7964E-01
     11.358  0.5428E-01  0.1235E+00  0.8047E-01
     11.447  0.4786E-01  0.1125E+00  0.8350E-01
     11.536  0.3911E-01  0.1145E+00  0.7893E-01
     11.624  0.4956E-01  0.1204E+00  0.7877E-01
     11.713  0.4815E-01  0.1239E+00  0.8088E-01
     11.802  0.3870E-01  0.1264E+00  0.7681E-01
     11.891  0.4234E-01  0.1412E+00  0.7631E-01
     11.979  0.4686E-01  0.1490E+00  0.8045E-01
     12.068  0.3960E-01  0.1440E+00  0.8727E-01
     12.157  0.3853E-01  0.1440E+00  0.8395E-01
     12.246  0.4496E-01  0.1428E+00  0.8150E-01
     12.334  0.4039E-01  0.1370E+00  0.8524E-01
     12.423  0.3740E-01  0.1422E+00  0.8534E-01
     12.512  0.4092E-01  0.1374E+00  0.8313E-01
     12.601  0.3992E-01  0.1479E+00  0.7648E-01
     12.689  0.3947E-01  0.1526E+00  0.7251E-01
     12.778  0.3544E-01  0.1404E+00  0.8050E-01
     12.867  0.3332E-01  0.1432E+00  0.8407E-01
     12.956  0.3995E-01  0.1587E+00  0.9086E-01
     13.044  0.3217E-01  0.1628E+00  0.8552E-01
     13.133  0.3179E-01  0.1689E+00  0.8423E-01
     13.222  0.3443E-01  0.1762E+00  0.7503E-01
     13.311  0.3637E-01  0.1858E+00  0.7944E-01
     13.399  0.3566E-01  0.1691E+00  0.8175E-01
     13.488  0.3610E-01  0.1473E+00  0.7080E-01
     13.577  0.3151E-01  0.1222E+00  0.6385E-01
     13.666  0.2459E-01  0.1206E+00  0.6318E-01
     13.754  0.2814E-01  0.1464E+00  0.8346E-01
     13.843  0.3038E-01  0.1621E+00  0.8894E-01
     13.932  0.2301E-01  0.1288E+00  0.7062E-01
     14.021  0.1775E-01  0.1401E+00  0.6666E-01
     14.109  0.1677E-01  0.1394E+00  0.6637E-01
     14.198  0.1340E-01  0.8513E-01  0.4247E-01
     14.287  0.9250E-02  0.3327E-01  0.2037E-01
     14.376  0.2460E-02  0.3328E-02  0.4597E-02
     14.464 -0.1517E-03 -0.8502E-03 -0.4603E-03
     14.553 -0.8046E-04 -0.1643E-03 -0.1577E-03
     14.642 -0.3768E-05 -0.6901E-05 -0.6732E-05
     14.731 -0.3415E-07 -0.6252E-07 -0.5905E-07
     14.819 -0.6227E-10 -0.1151E-09 -0.1065E-09
     14.908 -0.2291E-13 -0.4264E-13 -0.3902E-13
     14.997 -0.1619E-17 -0.3032E-17 -0.2750E-17
     15.086  0.0000E+00  0.0000E+00  0.0000E+00
     15.174  0.0000E+00  0.0000E+00  0.0000E+00
     15.263  0.0000E+00  0.0000E+00  0.0000E+00
     15.352  0.0000E+00  0.0000E+00  0.0000E+00
     15.441  0.0000E+00  0.0000E+00  0.0000E+00
     15.529  0.0000E+00  0.0000E+00  0.0000E+00
     15.52935406    -11.09576794  301     -0.81590790      1.00000000
    -11.096  0.0000E+00  0.0000E+00  0.0000E+00
    -11.007  0.0000E+00  0.0000E+00  0.0000E+00
    -10.918  0.0000E+00  0.0000E+00  0.0000E+00
    -10.830  0.0000E+00  0.0000E+00  0.0000E+00
    -10.741 -0.4479E-34 -0.5081E-35 -0.1166E-36
    -10.652 -0.7149E-28 -0.8111E-29 -0.1862E-30
    -10.563 -0.2330E-22 -0.2643E-23 -0.6068E-25
    -10.475 -0.1484E-17 -0.1684E-18 -0.3866E-20
    -10.386 -0.1989E-13 -0.2257E-14 -0.5181E-16
    -10.297 -0.5242E-10 -0.5947E-11 -0.1365E-12
    -10.208 -0.2674E-07 -0.3034E-08 -0.6971E-10
    -10.120 -0.2471E-05 -0.2806E-06 -0.6495E-08
    -10.031 -0.3214E-04 -0.3696E-05 -0.9507E-07
     -9.942  0.5822E-04  0.5040E-05 -0.2027E-06
     -9.853  0.6841E-03  0.7708E-04  0.1650E-05
     -9.765  0.3159E-02  0.4151E-03  0.2107E-04
     -9.676  0.3186E-02  0.4186E-03  0.2093E-04
     -9.587  0.3410E-03  0.5590E-04  0.5272E-05
     -9.498  0.3038E-02  0.5923E-03  0.7669E-04
     -9.410  0.3228E-02  0.6605E-03  0.9364E-04
     -9.321  0.2004E-02  0.4222E-03  0.5887E-04
     -9.232  0.1834E-02  0.2377E-03  0.2668E-04
     -9.143  0.6389E-02  0.6850E-03  0.1222E-03
     -9.055  0.1431E-01  0.1998E-02  0.4130E-03
     -8.966  0.4676E-02  0.1141E-02  0.3013E-03
     -8.877  0.2421E-04  0.3873E-03  0.1312E-03
     -8.788  0.2098E-01  0.2388E-02  0.2829E-03
     -8.700  0.3513E-01  0.4265E-02  0.5445E-03
     -8.611  0.9042E-02  0.1514E-02  0.2331E-03
     -8.522 -0.4222E-03  0.2743E-03  0.1107E-03
     -8.433  0.6768E-02  0.1485E-02  0.4099E-03
     -8.345  0.2655E-01  0.5195E-02  0.1111E-02
     -8.256  0.2871E-01  0.5488E-02  0.1484E-02
     -8.167  0.2127E-01  0.3008E-02  0.1140E-02
     -8.078  0.3823E-01  0.4031E-02  0.1765E-02
     -7.990  0.3167E-01  0.3648E-02  0.1841E-02
     -7.901  0.1774E-01  0.3198E-02  0.1409E-02
     -7.812  0.3906E-01  0.6950E-02  0.2960E-02
     -7.723  0.4132E-01  0.7017E-02  0.3355E-02
     -7.635  0.5085E-01  0.8439E-02  0.3946E-02
     -7.546  0.2376E-01  0.5799E-02  0.2630E-02
     -7.457  0.2775E-01  0.6296E-02  0.3346E-02
     -7.368  0.5856E-01  0.1049E-01  0.5158E-02
     -7.280  0.3956E-01  0.7763E-02  0.3296E-02
     -7.191  0.2965E-01  0.6027E-02  0.2640E-02
     -7.102  0.4553E-01  0.8634E-02  0.6722E-02
     -7.013  0.6200E-01  0.1215E-01  0.1256E-01
     -6.924  0.4777E-01  0.1213E-01  0.1161E-01
     -6.836  0.5794E-01  0.1175E-01  0.9601E-02
     -6.747  0.1006E+00  0.1567E-01  0.1476E-01
     -6.658  0.7367E-01  0.1100E-01  0.1507E-01
     -6.569  0.4759E-01  0.7129E-02  0.1100E-01
     -6.481  0.9357E-01  0.1284E-01  0.1828E-01
     -6.392  0.9394E-01  0.1761E-01  0.2934E-01
     -6.303  0.7075E-01  0.2292E-01  0.3358E-01
     -6.214  0.7985E-01  0.2455E-01  0.3293E-01
     -6.126  0.6256E-01  0.1955E-01  0.3699E-01
     -6.037  0.7138E-01  0.1987E-01  0.4488E-01
     -5.948  0.9035E-01  0.2873E-01  0.6056E-01
     -5.859  0.9633E-01  0.3564E-01  0.8447E-01
     -5.771  0.7722E-01  0.3495E-01  0.1118E+00
     -5.682  0.6841E-01  0.2901E-01  0.1352E+00
     -5.593  0.9412E-01  0.3436E-01  0.1725E+00
     -5.504  0.1180E+00  0.3590E-01  0.1871E+00
     -5.416  0.1277E+00  0.3422E-01  0.1979E+00
     -5.327  0.1250E+00  0.2956E-01  0.2299E+00
     -5.238  0.1171E+00  0.3051E-01  0.2296E+00
     -5.149  0.1156E+00  0.3469E-01  0.2443E+00
     -5.061  0.9452E-01  0.3900E-01  0.3060E+00
     -4.972  0.1179E+00  0.4162E-01  0.3935E+00
     -4.883  0.1584E+00  0.3971E-01  0.4667E+00
     -4.794  0.1685E+00  0.4237E-01  0.5612E+00
     -4.706  0.1292E+00  0.5190E-01  0.6580E+00
     -4.617  0.6938E-01  0.5970E-01  0.7885E+00
     -4.528  0.4518E-01  0.5590E-01  0.8918E+00
     -4.439  0.3668E-01  0.4646E-01  0.1057E+01
     -4.351  0.3049E-01  0.4332E-01  0.1270E+01
     -4.262  0.3595E-01  0.4267E-01  0.1167E+01
     -4.173  0.3648E-01  0.4426E-01  0.1280E+01
     -4.084  0.2843E-01  0.4929E-01  0.1551E+01
     -3.996  0.2574E-01  0.4703E-01  0.1659E+01
     -3.907  0.2816E-01  0.4607E-01  0.1702E+01
     -3.818  0.2620E-01  0.3798E-01  0.1533E+01
     -3.729  0.2968E-01  0.3574E-01  0.1745E+01
     -3.641  0.4258E-01  0.3629E-01  0.2392E+01
     -3.552  0.3772E-01  0.4148E-01  0.2768E+01
     -3.463  0.4944E-01  0.6934E-01  0.3326E+01
     -3.374  0.6516E-01  0.8646E-01  0.4518E+01
     -3.286  0.5099E-01  0.7191E-01  0.5773E+01
     -3.197  0.4776E-01  0.7037E-01  0.5890E+01