  96  96   1   0
  0.3125982E+02  0.1059562E-08  0.1065839E-08  0.3082152E-08  0.0000000E+00
  1.000000000000000E-004
  CAR 
 unknown system                          
     15.35660213    -11.11568805  301     -1.00492335      1.00000000
    -11.116  0.0000E+00  0.0000E+00
    -11.027  0.0000E+00  0.0000E+00
    -10.939  0.0000E+00  0.0000E+00
    -10.851  0.0000E+00  0.0000E+00
    -10.763 -0.1348E-30 -0.1189E-31
    -10.674 -0.1825E-24 -0.1610E-25
    -10.586 -0.5136E-19 -0.4532E-20
    -10.498 -0.2914E-14 -0.2572E-15
    -10.410 -0.3450E-10 -0.3044E-11
    -10.322 -0.8284E-07 -0.7313E-08
    -10.233 -0.3921E-04 -0.3468E-05
    -10.145 -0.3427E-02 -0.3058E-03
    -10.057 -0.4364E-01 -0.4157E-02
     -9.969  0.5820E-01  0.9791E-03
     -9.880  0.9607E+00  0.8576E-01
     -9.792  0.4582E+01  0.4901E+00
     -9.704  0.4140E+01  0.8555E+00
     -9.616  0.9236E+00  0.9370E+00
     -9.527  0.6318E+01  0.1494E+01
     -9.439  0.5467E+01  0.1977E+01
     -9.351  0.2674E+01  0.2213E+01
     -9.263  0.1875E+01  0.2378E+01
     -9.174  0.4639E+01  0.2788E+01
     -9.086  0.1110E+02  0.3767E+01
     -8.998  0.6969E+01  0.4382E+01
     -8.910  0.6230E+01  0.4931E+01
     -8.821  0.1304E+02  0.6082E+01
     -8.733  0.8863E+01  0.6864E+01
     -8.645  0.1517E+01  0.6998E+01
     -8.557  0.2983E+01  0.7261E+01
     -8.468  0.1191E+02  0.8313E+01
     -8.380  0.1476E+02  0.9615E+01
     -8.292  0.1217E+02  0.1069E+02
     -8.204  0.8719E+01  0.1146E+02
     -8.115  0.8708E+01  0.1223E+02
     -8.027  0.8027E+01  0.1293E+02
     -7.939  0.1056E+02  0.1387E+02
     -7.851  0.1252E+02  0.1497E+02
     -7.763  0.1799E+02  0.1656E+02
     -7.674  0.1843E+02  0.1819E+02
     -7.586  0.1107E+02  0.1916E+02
     -7.498  0.1714E+02  0.2067E+02
     -7.410  0.1500E+02  0.2200E+02
     -7.321  0.8436E+01  0.2274E+02
     -7.233  0.1503E+02  0.2407E+02
     -7.145  0.2469E+02  0.2625E+02
     -7.057  0.2370E+02  0.2834E+02
     -6.968  0.2562E+02  0.3060E+02
     -6.880  0.3151E+02  0.3338E+02
     -6.792  0.2931E+02  0.3597E+02
     -6.704  0.2163E+02  0.3787E+02
     -6.615  0.2845E+02  0.4038E+02
     -6.527  0.4598E+02  0.4444E+02
     -6.439  0.5467E+02  0.4927E+02
     -6.351  0.5997E+02  0.5456E+02
     -6.262  0.6177E+02  0.6001E+02
     -6.174  0.6471E+02  0.6572E+02
     -6.086  0.8017E+02  0.7279E+02
     -5.998  0.8673E+02  0.8045E+02
     -5.909  0.8278E+02  0.8775E+02
     -5.821  0.8333E+02  0.9510E+02
     -5.733  0.9160E+02  0.1032E+03
     -5.645  0.9791E+02  0.1118E+03
     -5.557  0.1032E+03  0.1209E+03
     -5.468  0.1096E+03  0.1306E+03
     -5.380  0.1122E+03  0.1405E+03
     -5.292  0.1148E+03  0.1506E+03
     -5.204  0.1128E+03  0.1606E+03
     -5.115  0.1233E+03  0.1715E+03
     -5.027  0.1281E+03  0.1828E+03
     -4.939  0.1277E+03  0.1940E+03
     -4.851  0.1227E+03  0.2049E+03
     -4.762  0.1240E+03  0.2158E+03
     -4.674  0.1366E+03  0.2279E+03
     -4.586  0.1480E+03  0.2409E+03
     -4.498  0.1532E+03  0.2545E+03
     -4.409  0.1538E+03  0.2680E+03
     -4.321  0.1690E+03  0.2829E+03
     -4.233  0.1834E+03  0.2991E+03
     -4.145  0.1932E+03  0.3162E+03
     -4.056  0.2126E+03  0.3349E+03
     -3.968  0.2357E+03  0.3557E+03
     -3.880  0.2539E+03  0.3781E+03
     -3.792  0.2793E+03  0.4028E+03
     -3.703  0.3188E+03  0.4309E+03
     -3.615  0.3596E+03  0.4626E+03
     -3.527  0.3993E+03  0.4979E+03
     -3.439  0.3943E+03  0.5327E+03
     -3.350  0.3963E+03  0.5676E+03
     -3.262  0.3081E+03  0.5948E+03
     -3.174  0.2353E+03  0.6156E+03
     -3.086  0.3097E+03  0.6429E+03
     -2.998  0.3670E+03  0.6753E+03
     -2.909  0.2904E+03  0.7009E+03
     -2.821  0.2717E+03  0.7249E+03
     -2.733  0.3245E+03  0.7535E+03
     -2.645  0.3401E+03  0.7836E+03
     -2.556  0.3335E+03  0.8130E+03
     -2.468  0.3263E+03  0.8418E+03
     -2.380  0.2853E+03  0.8669E+03
     -2.292  0.2372E+03  0.8879E+03
     -2.203  0.1954E+03  0.9051E+03
     -2.115  0.1667E+03  0.9198E+03
     -2.027  0.1578E+03  0.9338E+03
     -1.939  0.1562E+03  0.9475E+03
     -1.850  0.1528E+03  0.9610E+03
     -1.762  0.1395E+03  0.9733E+03
     -1.674  0.1283E+03  0.9846E+03
     -1.586  0.1220E+03  0.9954E+03
     -1.497  0.1008E+03  0.1004E+04
     -1.409  0.7316E+02  0.1011E+04
     -1.321  0.5765E+02  0.1016E+04
     -1.233  0.5783E+02  0.1021E+04
     -1.144  0.5521E+02  0.1026E+04
     -1.056  0.4702E+02  0.1030E+04
     -0.968  0.3693E+02  0.1033E+04
     -0.880  0.2989E+02  0.1036E+04
     -0.791  0.3759E+02  0.1039E+04
     -0.703  0.4577E+02  0.1043E+04
     -0.615  0.3933E+02  0.1047E+04
     -0.527  0.3717E+02  0.1050E+04
     -0.439  0.3092E+02  0.1053E+04
     -0.350  0.1871E+02  0.1054E+04
     -0.262  0.1641E+02  0.1056E+04
     -0.174  0.2561E+02  0.1058E+04
     -0.086  0.2826E+02  0.1061E+04
      0.003  0.3427E+02  0.1064E+04
      0.091  0.4065E+02  0.1067E+04
      0.179  0.4220E+02  0.1071E+04
      0.267  0.3541E+02  0.1074E+04
      0.356  0.2685E+02  0.1076E+04
      0.444  0.2177E+02  0.1078E+04
      0.532  0.2458E+02  0.1080E+04
      0.620  0.2476E+02  0.1083E+04
      0.709  0.2848E+02  0.1085E+04
      0.797  0.3506E+02  0.1088E+04
      0.885  0.2812E+02  0.1091E+04
      0.973  0.3064E+02  0.1093E+04
      1.062  0.3694E+02  0.1097E+04
      1.150  0.3154E+02  0.1099E+04
      1.238  0.2226E+02  0.1101E+04
      1.326  0.2242E+02  0.1103E+04
      1.415  0.3097E+02  0.1106E+04
      1.503  0.3318E+02  0.1109E+04
      1.591  0.3395E+02  0.1112E+04
      1.679  0.3197E+02  0.1115E+04
      1.767  0.2721E+02  0.1117E+04
      1.856  0.2548E+02  0.1120E+04
      1.944  0.2300E+02  0.1122E+04
      2.032  0.2574E+02  0.1124E+04
      2.120  0.2614E+02  0.1126E+04
      2.209  0.2357E+02  0.1128E+04
      2.297  0.1836E+02  0.1130E+04
      2.385  0.1675E+02  0.1131E+04
      2.473  0.2041E+02  0.1133E+04
      2.562  0.2594E+02  0.1135E+04
      2.650  0.2824E+02  0.1138E+04
      2.738  0.2532E+02  0.1140E+04
      2.826  0.2153E+02  0.1142E+04
      2.915  0.1966E+02  0.1144E+04
      3.003  0.2006E+02  0.1146E+04
      3.091  0.2223E+02  0.1148E+04
      3.179  0.1893E+02  0.1149E+04
      3.268  0.2339E+02  0.1151E+04
      3.356  0.2518E+02  0.1153E+04
      3.444  0.1410E+02  0.1155E+04
      3.532  0.1482E+02  0.1156E+04
      3.621  0.1973E+02  0.1158E+04
      3.709  0.2618E+02  0.1160E+04
      3.797  0.3001E+02  0.1163E+04
      3.885  0.3259E+02  0.1166E+04
      3.974  0.3227E+02  0.1168E+04
      4.062  0.3532E+02  0.1172E+04
      4.150  0.3698E+02  0.1175E+04
      4.238  0.3811E+02  0.1178E+04
      4.326  0.3540E+02  0.1181E+04
      4.415  0.3980E+02  0.1185E+04
      4.503  0.4560E+02  0.1189E+04
      4.591  0.3834E+02  0.1192E+04
      4.679  0.4362E+02  0.1196E+04
      4.768  0.5054E+02  0.1201E+04
      4.856  0.4484E+02  0.1205E+04
      4.944  0.4319E+02  0.1208E+04
      5.032  0.4351E+02  0.1212E+04
      5.121  0.5384E+02  0.1217E+04
      5.209  0.5044E+02  0.1221E+04
      5.297  0.4900E+02  0.1226E+04
      5.385  0.4818E+02  0.1230E+04
      5.474  0.4234E+02  0.1234E+04
      5.562  0.4074E+02  0.1237E+04
      5.650  0.4282E+02  0.1241E+04
      5.738  0.4594E+02  0.1245E+04
      5.827  0.5731E+02  0.1250E+04
      5.915  0.5557E+02  0.1255E+04
      6.003  0.5983E+02  0.1260E+04
      6.091  0.6070E+02  0.1266E+04
      6.180  0.4898E+02  0.1270E+04
      6.268  0.3975E+02  0.1274E+04
      6.356  0.4267E+02  0.1277E+04
      6.444  0.4873E+02  0.1282E+04
      6.533  0.4940E+02  0.1286E+04
      6.621  0.5208E+02  0.1291E+04
      6.709  0.5589E+02  0.1295E+04
      6.797  0.5069E+02  0.1300E+04
      6.885  0.4879E+02  0.1304E+04
      6.974  0.4752E+02  0.1308E+04
      7.062  0.4354E+02  0.1312E+04
      7.150  0.4991E+02  0.1317E+04
      7.238  0.6415E+02  0.1322E+04
      7.327  0.6677E+02  0.1328E+04
      7.415  0.5622E+02  0.1333E+04
      7.503  0.4652E+02  0.1337E+04
      7.591  0.4452E+02  0.1341E+04
      7.680  0.5919E+02  0.1346E+04
      7.768  0.6778E+02  0.1352E+04
      7.856  0.6806E+02  0.1358E+04
      7.944  0.6180E+02  0.1364E+04
      8.033  0.5620E+02  0.1369E+04
      8.121  0.5756E+02  0.1374E+04
      8.209  0.6191E+02  0.1379E+04
      8.297  0.6896E+02  0.1385E+04
      8.386  0.6818E+02  0.1392E+04
      8.474  0.6627E+02  0.1397E+04
      8.562  0.6646E+02  0.1403E+04
      8.650  0.6214E+02  0.1409E+04
      8.739  0.5604E+02  0.1414E+04
      8.827  0.5776E+02  0.1419E+04
      8.915  0.6515E+02  0.1424E+04
      9.003  0.6582E+02  0.1430E+04
      9.091  0.6097E+02  0.1436E+04
      9.180  0.6704E+02  0.1442E+04
      9.268  0.5761E+02  0.1447E+04
      9.356  0.5141E+02  0.1451E+04
      9.444  0.6121E+02  0.1457E+04
      9.533  0.7293E+02  0.1463E+04
      9.621  0.7512E+02  0.1470E+04
      9.709  0.7638E+02  0.1476E+04
      9.797  0.7462E+02  0.1483E+04
      9.886  0.7394E+02  0.1490E+04
      9.974  0.7381E+02  0.1496E+04
     10.062  0.6969E+02  0.1502E+04
     10.150  0.7180E+02  0.1509E+04
     10.239  0.7326E+02  0.1515E+04
     10.327  0.6940E+02  0.1521E+04
     10.415  0.7118E+02  0.1527E+04
     10.503  0.7518E+02  0.1534E+04
     10.592  0.7562E+02  0.1541E+04
     10.680  0.7391E+02  0.1547E+04
     10.768  0.7161E+02  0.1554E+04
     10.856  0.6695E+02  0.1559E+04
     10.945  0.6893E+02  0.1566E+04
     11.033  0.7711E+02  0.1572E+04
     11.121  0.7967E+02  0.1579E+04
     11.209  0.7887E+02  0.1586E+04
     11.298  0.7782E+02  0.1593E+04
     11.386  0.7909E+02  0.1600E+04
     11.474  0.7911E+02  0.1607E+04
     11.562  0.7773E+02  0.1614E+04
     11.650  0.7435E+02  0.1621E+04
     11.739  0.7521E+02  0.1627E+04
     11.827  0.7904E+02  0.1634E+04
     11.915  0.7458E+02  0.1641E+04
     12.003  0.6617E+02  0.1647E+04
     12.092  0.6646E+02  0.1652E+04
     12.180  0.6672E+02  0.1658E+04
     12.268  0.7115E+02  0.1665E+04
     12.356  0.7701E+02  0.1671E+04
     12.445  0.8702E+02  0.1679E+04
     12.533  0.9186E+02  0.1687E+04
     12.621  0.9418E+02  0.1696E+04
     12.709  0.8825E+02  0.1703E+04
     12.798  0.8281E+02  0.1711E+04
     12.886  0.8026E+02  0.1718E+04
     12.974  0.8206E+02  0.1725E+04
     13.062  0.8136E+02  0.1732E+04
     13.151  0.8297E+02  0.1739E+04
     13.239  0.7569E+02  0.1746E+04
     13.327  0.7114E+02  0.1752E+04
     13.415  0.6555E+02  0.1758E+04
     13.504  0.6923E+02  0.1764E+04
     13.592  0.7453E+02  0.1771E+04
     13.680  0.7448E+02  0.1777E+04
     13.768  0.7275E+02  0.1784E+04
     13.857  0.6791E+02  0.1790E+04
     13.945  0.5535E+02  0.1795E+04
     14.033  0.3841E+02  0.1798E+04
     14.121  0.1765E+02  0.1800E+04
     14.209  0.3897E+01  0.1800E+04
     14.298 -0.2549E+00  0.1800E+04
     14.386 -0.1548E+00  0.1800E+04
     14.474 -0.7725E-02  0.1800E+04
     14.562 -0.7227E-04  0.1800E+04
     14.651 -0.1359E-06  0.1800E+04
     14.739 -0.5230E-10  0.1800E+04
     14.827 -0.4404E-14  0.1800E+04
     14.915  0.0000E+00  0.1800E+04
     15.004  0.0000E+00  0.1800E+04
     15.092  0.0000E+00  0.1800E+04
     15.180  0.0000E+00  0.1800E+04
     15.268  0.0000E+00  0.1800E+04
     15.357  0.0000E+00  0.1800E+04
     15.35660213    -11.11568805  301     -1.00492335      1.00000000
    -11.116  0.0000E+00  0.0000E+00  0.0000E+00
    -11.027  0.0000E+00  0.0000E+00  0.0000E+00
    -10.939  0.0000E+00  0.0000E+00  0.0000E+00
    -10.851  0.0000E+00  0.0000E+00  0.0000E+00
    -10.763 -0.2932E-33 -0.2806E-34 -0.2594E-35
    -10.674 -0.3969E-27 -0.3799E-28 -0.3512E-29
    -10.586 -0.1117E-21 -0.1069E-22 -0.9885E-24
    -10.498 -0.6339E-17 -0.6068E-18 -0.5610E-19
    -10.410 -0.7503E-13 -0.7182E-14 -0.6640E-15
    -10.322 -0.1802E-09 -0.1725E-10 -0.1595E-11
    -10.233 -0.8529E-07 -0.8165E-08 -0.7552E-09
    -10.145 -0.7450E-05 -0.7137E-06 -0.6635E-07
    -10.057 -0.9446E-04 -0.9129E-05 -0.9080E-06
     -9.969  0.1393E-03  0.1093E-04 -0.7411E-06
     -9.880  0.2087E-02  0.2002E-03  0.1891E-04
     -9.792  0.9544E-02  0.9949E-03  0.1508E-03
     -9.704  0.8715E-02  0.9067E-03  0.1342E-03
     -9.616  0.1604E-02  0.1995E-03  0.5768E-04
     -9.527  0.8906E-02  0.1250E-02  0.4427E-03
     -9.439  0.6766E-02  0.1063E-02  0.4165E-03
     -9.351  0.7311E-02  0.8797E-03  0.2531E-03
     -9.263  0.1086E-01  0.9539E-03  0.1861E-03
     -9.174  0.2367E-01  0.1950E-02  0.6524E-03
     -9.086  0.4874E-01  0.4395E-02  0.1668E-02
     -8.998  0.3903E-01  0.3985E-02  0.1175E-02
     -8.910  0.4588E-01  0.4750E-02  0.1530E-02
     -8.821  0.8330E-01  0.8582E-02  0.3707E-02
     -8.733  0.6355E-01  0.6408E-02  0.2446E-02
     -8.645  0.1230E-01  0.1323E-02  0.3646E-03
     -8.557  0.1627E-01  0.2128E-02  0.1190E-02
     -8.468  0.9631E-01  0.1110E-01  0.6504E-02
     -8.380  0.1081E+00  0.1214E-01  0.7773E-02
     -8.292  0.5672E-01  0.7049E-02  0.5999E-02
     -8.204  0.3184E-01  0.5733E-02  0.6417E-02
     -8.115  0.4958E-01  0.5853E-02  0.7111E-02
     -8.027  0.4625E-01  0.5316E-02  0.6392E-02
     -7.939  0.8175E-01  0.8748E-02  0.9467E-02
     -7.851  0.1055E+00  0.1208E-01  0.1245E-01
     -7.763  0.7317E-01  0.1460E-01  0.1963E-01
     -7.674  0.4520E-01  0.1370E-01  0.2193E-01
     -7.586  0.3346E-01  0.6101E-02  0.1136E-01
     -7.498  0.9734E-01  0.1068E-01  0.1826E-01
     -7.410  0.8974E-01  0.1082E-01  0.1842E-01
     -7.321  0.4234E-01  0.6949E-02  0.1704E-01
     -7.233  0.8308E-01  0.1328E-01  0.4381E-01
     -7.145  0.1963E+00  0.2132E-01  0.7993E-01
     -7.057  0.1824E+00  0.1717E-01  0.7346E-01
     -6.968  0.1499E+00  0.1768E-01  0.8846E-01
     -6.880  0.1566E+00  0.2301E-01  0.1094E+00
     -6.792  0.1615E+00  0.2193E-01  0.1145E+00
     -6.704  0.1569E+00  0.1447E-01  0.1202E+00
     -6.615  0.1246E+00  0.1606E-01  0.1841E+00
     -6.527  0.1105E+00  0.2735E-01  0.2282E+00
     -6.439  0.1360E+00  0.3507E-01  0.2560E+00
     -6.351  0.1426E+00  0.3940E-01  0.3667E+00
     -6.262  0.1295E+00  0.3928E-01  0.4683E+00
     -6.174  0.1270E+00  0.4742E-01  0.5633E+00
     -6.086  0.1475E+00  0.6837E-01  0.8177E+00
     -5.998  0.2072E+00  0.7430E-01  0.1018E+01
     -5.909  0.2441E+00  0.6344E-01  0.1149E+01
     -5.821  0.1851E+00  0.5089E-01  0.1116E+01
     -5.733  0.1018E+00  0.4864E-01  0.1060E+01
     -5.645  0.7814E-01  0.4657E-01  0.1152E+01
     -5.557  0.1008E+00  0.4824E-01  0.1243E+01
     -5.468  0.9811E-01  0.6016E-01  0.1367E+01
     -5.380  0.7535E-01  0.5780E-01  0.1298E+01
     -5.292  0.5542E-01  0.5383E-01  0.1261E+01
     -5.204  0.5022E-01  0.5076E-01  0.1340E+01
     -5.115  0.5705E-01  0.4967E-01  0.1436E+01
     -5.027  0.7066E-01  0.4610E-01  0.1499E+01
     -4.939  0.7396E-01  0.3190E-01  0.1589E+01
     -4.851  0.5481E-01  0.2046E-01  0.1232E+01
     -4.762  0.3698E-01  0.1944E-01  0.9064E+00
     -4.674  0.5025E-01  0.2640E-01  0.9783E+00
     -4.586  0.5114E-01  0.3038E-01  0.1166E+01
     -4.498  0.3501E-01  0.2894E-01  0.1258E+01
     -4.409  0.4012E-01  0.2701E-01  0.1257E+01
     -4.321  0.4059E-01  0.3576E-01  0.1484E+01
     -4.233  0.3486E-01  0.4404E-01  0.1573E+01
     -4.145  0.3069E-01  0.4058E-01  0.1405E+01
     -4.056  0.4223E-01  0.4142E-01  0.1411E+01
     -3.968  0.4563E-01  0.4173E-01  0.1565E+01
     -3.880  0.3481E-01  0.3837E-01  0.1583E+01
     -3.792  0.3257E-01  0.4526E-01  0.1665E+01
     -3.703  0.4194E-01  0.5696E-01  0.1716E+01
     -3.615  0.4887E-01  0.6550E-01  0.1751E+01
     -3.527  0.5705E-01  0.9495E-01  0.1750E+01
     -3.439  0.5054E-01  0.1066E+00  0.1812E+01
     -3.350  0.4768E-01  0.9845E-01  0.1705E+01
     -3.262  0.4080E-01  0.9384E-01  0.1183E+01
     -3.174  0.4332E-01  0.8796E-01  0.8961E+00
     -3.086  0.5170E-01  0.1046E+00  0.1186E+01
     -2.998  0.3868E-01  0.1013E+00  0.1409E+01
     -2.909  0.2687E-01  0.6402E-01  0.1046E+01
     -2.821  0.2290E-01  0.5826E-01  0.9274E+00
     -2.733  0.2780E-01  0.7333E-01  0.1150E+01
     -2.645  0.2615E-01  0.6276E-01  0.1299E+01
     -2.556  0.2263E-01  0.4787E-01  0.1286E+01
     -2.468  0.2063E-01  0.4476E-01  0.1272E+01
     -2.380  0.1717E-01  0.4368E-01  0.1414E+01
     -2.292  0.1583E-01  0.4039E-01  0.1773E+01
     -2.203  0.1770E-01  0.3376E-01  0.2037E+01
     -2.115  0.2466E-01  0.3360E-01  0.2164E+01
     -2.027  0.3009E-01  0.4629E-01  0.2458E+01
     -1.939  0.4321E-01  0.5044E-01  0.2862E+01
     -1.850  0.6717E-01  0.4216E-01  0.3211E+01
     -1.762  0.8159E-01  0.4264E-01  0.2767E+01
     -1.674  0.8036E-01  0.4738E-01  0.2309E+01
     -1.586  0.7463E-01  0.5452E-01  0.2110E+01
     -1.497  0.5657E-01  0.4799E-01  0.1764E+01
     -1.409  0.5932E-01  0.4968E-01  0.1473E+01
     -1.321  0.5078E-01  0.5088E-01  0.1032E+01
     -1.233  0.5126E-01  0.4576E-01  0.1015E+01
     -1.144  0.5705E-01  0.4022E-01  0.9545E+00
     -1.056  0.3598E-01  0.4151E-01  0.7398E+00
     -0.968  0.2065E-01  0.5275E-01  0.5736E+00
     -0.880  0.1776E-01  0.5209E-01  0.4178E+00
     -0.791  0.4982E-01  0.6954E-01  0.4383E+00
     -0.703  0.8629E-01  0.9620E-01  0.5159E+00
     -0.615  0.6306E-01  0.8891E-01  0.4681E+00
     -0.527  0.4623E-01  0.7567E-01  0.5301E+00
     -0.439  0.3075E-01  0.8463E-01  0.3943E+00
     -0.350  0.1013E-01  0.5517E-01  0.1362E+00
     -0.262  0.1507E-01  0.3438E-01  0.1259E+00
     -0.174  0.2802E-01  0.4743E-01  0.2279E+00
     -0.086  0.2507E-01  0.5931E-01  0.2230E+00
      0.003  0.3940E-01  0.8111E-01  0.2258E+00
      0.091  0.6892E-01  0.9500E-01  0.2956E+00
      0.179  0.6427E-01  0.1158E+00  0.3546E+00
      0.267  0.4142E-01  0.1292E+00  0.2915E+00
      0.356  0.4087E-01  0.1048E+00  0.2372E+00
      0.444  0.2923E-01  0.6898E-01  0.1909E+00
      0.532  0.3681E-01  0.5838E-01  0.1913E+00
      0.620  0.2220E-01  0.5685E-01  0.1593E+00
      0.709  0.1938E-01  0.6468E-01  0.1623E+00
      0.797  0.3265E-01  0.1027E+00  0.1808E+00
      0.885  0.2867E-01  0.8985E-01  0.1577E+00
      0.973  0.2310E-01  0.1011E+00  0.1888E+00
      1.062  0.3087E-01  0.1211E+00  0.2332E+00
      1.150  0.4122E-01  0.1088E+00  0.1848E+00
      1.238  0.3045E-01  0.8100E-01  0.1313E+00
      1.326  0.2468E-01  0.7853E-01  0.1321E+00
      1.415  0.2952E-01  0.1012E+00  0.1654E+00
      1.503  0.2646E-01  0.1142E+00  0.2012E+00
      1.591  0.2726E-01  0.1293E+00  0.2174E+00
      1.679  0.3171E-01  0.1491E+00  0.2144E+00
      1.767  0.3287E-01  0.1200E+00  0.1676E+00
      1.856  0.3249E-01  0.9128E-01  0.1409E+00
      1.944  0.1949E-01  0.7495E-01  0.1072E+00
      2.032  0.1103E-01  0.8638E-01  0.9772E-01
      2.120  0.1262E-01  0.8671E-01  0.1148E+00
      2.209  0.9288E-02  0.6704E-01  0.9349E-01
      2.297  0.6112E-02  0.6905E-01  0.6799E-01
      2.385  0.9145E-02  0.6802E-01  0.7585E-01
      2.473  0.1289E-01  0.7811E-01  0.9099E-01
      2.562  0.1811E-01  0.8930E-01  0.1188E+00
      2.650  0.2251E-01  0.7805E-01  0.1223E+00
      2.738  0.2166E-01  0.6806E-01  0.1124E+00
      2.826  0.1667E-01  0.7427E-01  0.8693E-01
      2.915  0.1291E-01  0.7168E-01  0.7961E-01
      3.003  0.1129E-01  0.6974E-01  0.8849E-01
      3.091  0.1167E-01  0.5356E-01  0.9370E-01
      3.179  0.1516E-01  0.4203E-01  0.7803E-01
      3.268  0.1689E-01  0.5591E-01  0.1060E+00
      3.356  0.1242E-01  0.6526E-01  0.1046E+00
      3.444  0.9641E-02  0.3781E-01  0.4841E-01
      3.532  0.1585E-01  0.2245E-01  0.3635E-01
      3.621  0.2846E-01  0.3117E-01  0.4628E-01
      3.709  0.3570E-01  0.4516E-01  0.6534E-01
      3.797  0.2608E-01  0.4551E-01  0.7206E-01
      3.885  0.3419E-01  0.3595E-01  0.7093E-01
      3.974  0.4386E-01  0.3966E-01  0.7092E-01
      4.062  0.4432E-01  0.5784E-01  0.8088E-01
      4.150  0.6915E-01  0.5989E-01  0.9941E-01
      4.238  0.1502E+00  0.6331E-01  0.1179E+00
      4.326  0.1567E+00  0.6724E-01  0.1119E+00
      4.415  0.8483E-01  0.7550E-01  0.1319E+00
      4.503  0.8941E-01  0.8484E-01  0.1384E+00
      4.591  0.9608E-01  0.6846E-01  0.1162E+00
      4.679  0.1258E+00  0.4958E-01  0.1298E+00
      4.768  0.1201E+00  0.5652E-01  0.1507E+00
      4.856  0.7595E-01  0.6262E-01  0.1213E+00
      4.944  0.6722E-01  0.7292E-01  0.1031E+00
      5.032  0.5690E-01  0.8423E-01  0.9840E-01
      5.121  0.7372E-01  0.9075E-01  0.1121E+00
      5.209  0.5936E-01  0.7584E-01  0.1081E+00
      5.297  0.6413E-01  0.8363E-01  0.1233E+00
      5.385  0.8066E-01  0.8808E-01  0.1208E+00
      5.474  0.7780E-01  0.8452E-01  0.1209E+00
      5.562  0.5816E-01  0.8075E-01  0.1244E+00
      5.650  0.3414E-01  0.6714E-01  0.8306E-01
      5.738  0.2562E-01  0.5692E-01  0.5705E-01
      5.827  0.5469E-01  0.8867E-01  0.9205E-01
      5.915  0.7633E-01  0.1145E+00  0.1337E+00
      6.003  0.7358E-01  0.1102E+00  0.1398E+00
      6.091  0.6786E-01  0.1211E+00  0.1196E+00
      6.180  0.5917E-01  0.1164E+00  0.1120E+00
      6.268  0.3102E-01  0.7467E-01  0.7697E-01
      6.356  0.2465E-01  0.5508E-01  0.5637E-01
      6.444  0.3020E-01  0.6025E-01  0.6230E-01
      6.533  0.5151E-01  0.8872E-01  0.7223E-01
      6.621  0.9241E-01  0.8668E-01  0.9243E-01
      6.709  0.8407E-01  0.8408E-01  0.9747E-01
      6.797  0.5623E-01  0.9002E-01  0.9611E-01
      6.885  0.4728E-01  0.1053E+00  0.9936E-01
      6.974  0.5072E-01  0.9685E-01  0.9819E-01
      7.062  0.4173E-01  0.7562E-01  0.8113E-01
      7.150  0.4708E-01  0.8438E-01  0.8891E-01
      7.238  0.7051E-01  0.1017E+00  0.1168E+00
      7.327  0.6853E-01  0.1005E+00  0.1228E+00
      7.415  0.5105E-01  0.8985E-01  0.8850E-01
      7.503  0.6559E-01  0.8208E-01  0.7083E-01
      7.591  0.5757E-01  0.6020E-01  0.6541E-01
      7.680  0.5156E-01  0.7163E-01  0.7634E-01
      7.768  0.5332E-01  0.1005E+00  0.9038E-01
      7.856  0.5383E-01  0.1032E+00  0.1070E+00
      7.944  0.5133E-01  0.9516E-01  0.9766E-01
      8.033  0.4428E-01  0.9398E-01  0.9115E-01
      8.121  0.4979E-01  0.1037E+00  0.8990E-01
      8.209  0.5103E-01  0.8796E-01  0.9153E-01
      8.297  0.5483E-01  0.7604E-01  0.1057E+00
      8.386  0.6291E-01  0.8420E-01  0.1124E+00
      8.474  0.6053E-01  0.9133E-01  0.1033E+00
      8.562  0.4500E-01  0.8773E-01  0.9133E-01
      8.650  0.3900E-01  0.9309E-01  0.8767E-01
      8.739  0.4722E-01  0.8385E-01  0.8715E-01
      8.827  0.5423E-01  0.9282E-01  0.9948E-01
      8.915  0.5757E-01  0.1139E+00  0.1117E+00
      9.003  0.5490E-01  0.1075E+00  0.1115E+00
      9.091  0.6107E-01  0.8278E-01  0.9637E-01
      9.180  0.7769E-01  0.8133E-01  0.1044E+00
      9.268  0.7635E-01  0.7014E-01  0.1014E+00
      9.356  0.7648E-01  0.7212E-01  0.1008E+00
      9.444  0.6634E-01  0.9176E-01  0.8787E-01
      9.533  0.5383E-01  0.9133E-01  0.9072E-01
      9.621  0.4682E-01  0.9844E-01  0.1000E+00
      9.709  0.4540E-01  0.1068E+00  0.1014E+00
      9.797  0.4456E-01  0.1002E+00  0.1046E+00
      9.886  0.5903E-01  0.1095E+00  0.1108E+00
      9.974  0.6808E-01  0.1029E+00  0.1065E+00
     10.062  0.5227E-01  0.8839E-01  0.1001E+00
     10.150  0.5859E-01  0.9078E-01  0.1144E+00
     10.239  0.6805E-01  0.1064E+00  0.1384E+00
     10.327  0.6161E-01  0.1073E+00  0.1327E+00
     10.415  0.5428E-01  0.9562E-01  0.1226E+00
     10.503  0.5631E-01  0.1023E+00  0.1122E+00
     10.592  0.6009E-01  0.1091E+00  0.9949E-01
     10.680  0.4917E-01  0.9818E-01  0.1028E+00
     10.768  0.4340E-01  0.9890E-01  0.1067E+00
     10.856  0.4196E-01  0.9543E-01  0.8874E-01
     10.945  0.4818E-01  0.1019E+00  0.8312E-01
     11.033  0.5385E-01  0.1172E+00  0.8932E-01
     11.121  0.4997E-01  0.1086E+00  0.8872E-01
     11.209  0.5233E-01  0.1085E+00  0.9615E-01
     11.298  0.5037E-01  0.1155E+00  0.1103E+00
     11.386  0.5396E-01  0.1204E+00  0.1243E+00
     11.474  0.5426E-01  0.1214E+00  0.1144E+00
     11.562  0.4960E-01  0.1192E+00  0.1049E+00
     11.650  0.4189E-01  0.1192E+00  0.1046E+00
     11.739  0.3559E-01  0.1325E+00  0.1097E+00
     11.827  0.4483E-01  0.1262E+00  0.1063E+00
     11.915  0.4613E-01  0.1095E+00  0.9915E-01
     12.003  0.3273E-01  0.1195E+00  0.9773E-01
     12.092  0.2728E-01  0.1291E+00  0.8829E-01
     12.180  0.2750E-01  0.1185E+00  0.8005E-01
     12.268  0.2896E-01  0.1214E+00  0.9323E-01
     12.356  0.3895E-01  0.1169E+00  0.9422E-01
     12.445  0.4210E-01  0.1259E+00  0.8650E-01
     12.533  0.4461E-01  0.1533E+00  0.9547E-01
     12.621  0.5049E-01  0.1702E+00  0.1096E+00
     12.709  0.5145E-01  0.1612E+00  0.1073E+00
     12.798  0.3650E-01  0.1379E+00  0.1026E+00
     12.886  0.3686E-01  0.1435E+00  0.1065E+00
     12.974  0.4581E-01  0.1619E+00  0.1084E+00
     13.062  0.3630E-01  0.1511E+00  0.1024E+00
     13.151  0.3064E-01  0.1582E+00  0.9819E-01
     13.239  0.3050E-01  0.1543E+00  0.8334E-01
     13.327  0.2785E-01  0.1434E+00  0.8445E-01
     13.415  0.2047E-01  0.1305E+00  0.8973E-01
     13.504  0.2538E-01  0.1359E+00  0.9195E-01
     13.592  0.2696E-01  0.1488E+00  0.1003E+00
     13.680  0.2507E-01  0.1427E+00  0.9929E-01
     13.768  0.2241E-01  0.1386E+00  0.8793E-01
     13.857  0.2084E-01  0.1304E+00  0.8174E-01
     13.945  0.1865E-01  0.1006E+00  0.7141E-01
     14.033  0.1680E-01  0.7038E-01  0.5132E-01
     14.121  0.8816E-02  0.3036E-01  0.2307E-01
     14.209  0.1333E-02  0.6489E-02  0.3437E-02
     14.298 -0.2597E-03 -0.3980E-03 -0.5516E-03
     14.386 -0.4807E-04 -0.2688E-03 -0.1427E-03
     14.474 -0.1419E-05 -0.1378E-04 -0.5950E-05
     14.562 -0.9227E-08 -0.1311E-06 -0.5212E-07
     14.651 -0.1371E-10 -0.2497E-09 -0.9569E-10
     14.739 -0.4600E-14 -0.9721E-13 -0.3661E-13
     14.827 -0.3248E-18 -0.8295E-17 -0.3057E-17
     14.915  0.0000E+00  0.0000E+00  0.0000E+00
     15.004  0.0000E+00  0.0000E+00  0.0000E+00
     15.092  0.0000E+00  0.0000E+00  0.0000E+00
     15.180  0.0000E+00  0.0000E+00  0.0000E+00
     15.268  0.0000E+00  0.0000E+00  0.0000E+00
     15.357  0.0000E+00  0.0000E+00  0.0000E+00
     15.35660213    -11.11568805  301     -1.00492335      1.00000000
    -11.116  0.0000E+00  0.0000E+00  0.0000E+00
    -11.027  0.0000E+00  0.0000E+00  0.0000E+00
    -10.939  0.0000E+00  0.0000E+00  0.0000E+00
    -10.851  0.0000E+00  0.0000E+00  0.0000E+00
    -10.763 -0.3602E-33 -0.3320E-34 -0.4242E-35
    -10.674 -0.4876E-27 -0.4495E-28 -0.5743E-29
    -10.586 -0.1372E-21 -0.1265E-22 -0.1616E-23
    -10.498 -0.7788E-17 -0.7179E-18 -0.9173E-19
    -10.410 -0.9218E-13 -0.8497E-14 -0.1086E-14
    -10.322 -0.2214E-09 -0.2041E-10 -0.2607E-11
    -10.233 -0.1048E-06 -0.9660E-08 -0.1235E-08
    -10.145 -0.9156E-05 -0.8445E-06 -0.1083E-06
    -10.057 -0.1165E-03 -0.1084E-04 -0.1452E-05
     -9.969  0.1596E-03  0.1195E-04 -0.3101E-06
     -9.880  0.2567E-02  0.2371E-03  0.3074E-04
     -9.792  0.1211E-01  0.1210E-02  0.2161E-03
     -9.704  0.1098E-01  0.1095E-02  0.1914E-03
     -9.616  0.2350E-02  0.2700E-03  0.7864E-04
     -9.527  0.1481E-01  0.1835E-02  0.6127E-03
     -9.439  0.1158E-01  0.1573E-02  0.5692E-03
     -9.351  0.8800E-02  0.1008E-02  0.2820E-03
     -9.263  0.1100E-01  0.8733E-03  0.1993E-03
     -9.174  0.3591E-01  0.2826E-02  0.9846E-03
     -9.086  0.7960E-01  0.6730E-02  0.2396E-02
     -8.998  0.4317E-01  0.3970E-02  0.1185E-02
     -8.910  0.4174E-01  0.3991E-02  0.1460E-02
     -8.821  0.9178E-01  0.8914E-02  0.4494E-02
     -8.733  0.6457E-01  0.6464E-02  0.3171E-02
     -8.645  0.7314E-02  0.1174E-02  0.5743E-03
     -8.557  0.2462E-02  0.1085E-02  0.1318E-02
     -8.468  0.8639E-01  0.9710E-02  0.7145E-02
     -8.380  0.1219E+00  0.1284E-01  0.9233E-02
     -8.292  0.8941E-01  0.9409E-02  0.7453E-02
     -8.204  0.6970E-01  0.7545E-02  0.7578E-02
     -8.115  0.4949E-01  0.5586E-02  0.8486E-02
     -8.027  0.5034E-01  0.5661E-02  0.8683E-02
     -7.939  0.9521E-01  0.1086E-01  0.1409E-01
     -7.851  0.7418E-01  0.1310E-01  0.1819E-01
     -7.763  0.7964E-01  0.1534E-01  0.2125E-01
     -7.674  0.9045E-01  0.1562E-01  0.2293E-01
     -7.586  0.4690E-01  0.7475E-02  0.1548E-01
     -7.498  0.9411E-01  0.1243E-01  0.2283E-01
     -7.410  0.6896E-01  0.1153E-01  0.2162E-01
     -7.321  0.5713E-01  0.6244E-02  0.1889E-01
     -7.233  0.1338E+00  0.1432E-01  0.5222E-01
     -7.145  0.2040E+00  0.2337E-01  0.1077E+00
     -7.057  0.1323E+00  0.1876E-01  0.9761E-01
     -6.968  0.1675E+00  0.1813E-01  0.1208E+00
     -6.880  0.2445E+00  0.2366E-01  0.1476E+00
     -6.792  0.2660E+00  0.2235E-01  0.1407E+00
     -6.704  0.2364E+00  0.1484E-01  0.1641E+00
     -6.615  0.1489E+00  0.2067E-01  0.2646E+00
     -6.527  0.1113E+00  0.3504E-01  0.3402E+00
     -6.439  0.8377E-01  0.4912E-01  0.4058E+00
     -6.351  0.7563E-01  0.6318E-01  0.5980E+00
     -6.262  0.8315E-01  0.6349E-01  0.7921E+00
     -6.174  0.8535E-01  0.5055E-01  0.8074E+00
     -6.086  0.9611E-01  0.4299E-01  0.8270E+00
     -5.998  0.1065E+00  0.4377E-01  0.9853E+00
     -5.909  0.1282E+00  0.4780E-01  0.1161E+01
     -5.821  0.1537E+00  0.4975E-01  0.1203E+01
     -5.733  0.1794E+00  0.4928E-01  0.1248E+01
     -5.645  0.1446E+00  0.5747E-01  0.1422E+01
     -5.557  0.9420E-01  0.6609E-01  0.1683E+01
     -5.468  0.9577E-01  0.7493E-01  0.2186E+01
     -5.380  0.1209E+00  0.7816E-01  0.2244E+01
     -5.292  0.1224E+00  0.7100E-01  0.1696E+01
     -5.204  0.8562E-01  0.5730E-01  0.1184E+01
     -5.115  0.6068E-01  0.5249E-01  0.1057E+01
     -5.027  0.4606E-01  0.4542E-01  0.9749E+00
     -4.939  0.3321E-01  0.4297E-01  0.8061E+00
     -4.851  0.1930E-01  0.3676E-01  0.7014E+00
     -4.762  0.1652E-01  0.2926E-01  0.7097E+00
     -4.674  0.2425E-01  0.2694E-01  0.8517E+00
     -4.586  0.2649E-01  0.3322E-01  0.9822E+00
     -4.498  0.2193E-01  0.3778E-01  0.1029E+01
     -4.409  0.2108E-01  0.3923E-01  0.1191E+01
     -4.321  0.2610E-01  0.4383E-01  0.1485E+01
     -4.233  0.3132E-01  0.4662E-01  0.1580E+01
     -4.145  0.3605E-01  0.4366E-01  0.1343E+01
     -4.056  0.4491E-01  0.3993E-01  0.1255E+01
     -3.968  0.4363E-01  0.3878E-01  0.1304E+01
     -3.880  0.3675E-01  0.4210E-01  0.1442E+01
     -3.792  0.3427E-01  0.5683E-01  0.1782E+01
     -3.703  0.4059E-01  0.6941E-01  0.1965E+01
     -3.615  0.4652E-01  0.6970E-01  0.1819E+01
     -3.527  0.5829E-01  0.9519E-01  0.1868E+01
     -3.439  0.5768E-01  0.1019E+00  0.1834E+01
     -3.350  0.5307E-01  0.9494E-01  0.1497E+01
     -3.262  0.4073E-01  0.9056E-01  0.1090E+01