<?xml version="1.0" encoding="ISO-8859-1"?>
<modeling>
 <generator>
  <i name="program" type="string">vasp </i>
  <i name="version" type="string">5.4.4.18Apr17-6-g9f103f2a35  </i>
  <i name="subversion" type="string">(build Jul 21 2017 13:29:34) complex            parallel </i>
  <i name="platform" type="string">LinuxIFC </i>
  <i name="date" type="string">2017 10 17 </i>
  <i name="time" type="string">13:38:17 </i>
 </generator>
 <incar>
  <i type="string" name="PREC">normal</i>
  <i type="string" name="ALGO"> V</i>
  <i type="int" name="NSIM">    12</i>
  <i type="int" name="ISPIN">     2</i>
  <i type="int" name="NELM">    60</i>
  <i type="int" name="NELMIN">     5</i>
  <i type="int" name="IBRION">     3</i>
  <i name="EDIFF">      0.00010000</i>
  <i name="EDIFFG">     -0.03000000</i>
  <i type="int" name="NSW">   100</i>
  <i type="int" name="ISYM">     0</i>
  <i name="ENCUT">    400.00000000</i>
  <i name="POTIM">      0.03000000</i>
  <i name="SMASS">      0.30000000</i>
  <v name="MAGMOM">      0.00000000      0.00000000      0.00000000      0.00000000      0.00000000      0.00000000      0.00000000      0.00000000      0.00000000      0.00000000      0.00000000      0.00000000      0.00000000      0.00000000      0.00000000      0.00000000      0.00000000      0.00000000      0.00000000      0.00000000
      0.00000000      0.00000000      0.00000000      0.00000000      0.00000000      0.00000000      0.00000000      0.00000000      0.00000000      0.00000000      0.00000000      0.00000000      0.00000000      0.00000000      0.00000000      0.00000000      0.00000000      0.00000000      0.00000000      0.00000000
      0.00000000      0.00000000      0.00000000      0.00000000      0.00000000      0.00000000      0.00000000      0.00000000      0.00000000      0.00000000      0.00000000      0.00000000      0.00000000      0.00000000      0.00000000      0.00000000      0.00000000      0.00000000      0.00000000      0.00000000
      0.00000000      0.00000000      0.00000000      0.00000000      0.00000000      0.00000000      0.00000000      0.00000000      0.00000000      0.00000000      0.00000000      0.00000000      0.00000000      0.00000000      0.00000000      0.00000000      0.00000000      0.00000000      0.00000000      0.00000000
      0.00000000      0.00000000      0.00000000      0.00000000      0.00000000      0.00000000      0.00000000      0.00000000      0.00000000      0.00000000      0.00000000      0.00000000      0.00000000      0.00000000      0.00000000      0.00000000      0.00000000      0.00000000      0.00000000      0.00000000
      0.00000000      0.00000000      0.00000000      0.00000000      0.00000000      0.00000000      0.00000000      0.00000000      0.00000000      0.00000000      0.00000000      0.00000000</v>
  <i type="logical" name="LREAL"> T  </i>
  <i type="logical" name="LPLANE"> T  </i>
  <i type="int" name="ISMEAR">     1</i>
  <i name="SIGMA">      0.20000000</i>
  <i type="logical" name="LWAVE"> F  </i>
  <i type="logical" name="LCHARG"> F  </i>
  <i type="logical" name="LSCALAPACK"> T  </i>
  <i type="logical" name="LSCALU"> T  </i>
  <i type="logical" name="LAECHG"> F  </i>
  <v type="int" name="KPOINT_BSE">    -1     0     0     0</v>
  <i type="int" name="NELM">    60</i>
  <i type="string" name="GGA"> RP</i>
 </incar>
 <structure name="primitive_cell" >
  <crystal>
   <varray name="basis" >
    <v>      14.16366987       0.00000000       0.00000000 </v>
    <v>      -6.07014423       8.81971509       0.00000000 </v>
    <v>       0.00000000       0.00000000      31.28959415 </v>
   </varray>
   <i name="volume">   3908.68148614 </i>
   <varray name="rec_basis" >
    <v>       0.07060317       0.04859243       0.00000000 </v>
    <v>       0.00000000       0.11338235       0.00000000 </v>
    <v>       0.00000000       0.00000000       0.03195951 </v>
   </varray>
  </crystal>
  <varray name="positions" >
   <v>       0.00000000       0.00000000       0.00000000 </v>
   <v>       0.13157895      -0.02631579       0.05550921 </v>
   <v>       0.13157895       0.22368421       0.05550921 </v>
   <v>       0.00000000       0.25000000       0.00000000 </v>
   <v>       0.00000000      -0.25000000       0.00000000 </v>
   <v>      -0.18421053      -0.01315789       0.02775460 </v>
   <v>      -0.18421053      -0.26315789       0.02775460 </v>
   <v>      -0.05263158      -0.03947368       0.08326381 </v>
   <v>      -0.05263158       0.21052632       0.08326381 </v>
   <v>      -0.05263158      -0.28947368       0.08326381 </v>
   <v>       0.31578947       0.23684211       0.02775460 </v>
   <v>      -0.23684211      -0.05263158       0.11101842 </v>
   <v>       0.26315789       0.19736842       0.11101842 </v>
   <v>      -0.23684211      -0.30263158       0.11101842 </v>
   <v>       0.13157895      -0.27631579       0.05550921 </v>
   <v>       0.13157895       0.47368421       0.05550921 </v>
   <v>      -0.18421053       0.23684211       0.02775460 </v>
   <v>       0.07894737       0.18421053       0.13877302 </v>
   <v>      -0.36842105      -0.27631579       0.05550921 </v>
   <v>       0.07894737      -0.06578947       0.13877302 </v>
   <v>       0.31578947       0.48684211       0.02775460 </v>
   <v>      -0.18421053       0.48684211       0.02775460 </v>
   <v>       0.31578947      -0.01315789       0.02775460 </v>
   <v>       0.26315789       0.44736842       0.11101842 </v>
   <v>       0.26315789      -0.05263158       0.11101842 </v>
   <v>       0.00000000      -0.50000000       0.00000000 </v>
   <v>      -0.36842105       0.47368421       0.05550921 </v>
   <v>      -0.36842105      -0.02631579       0.05550921 </v>
   <v>      -0.10526316      -0.07894737       0.16652763 </v>
   <v>      -0.23684211       0.19736842       0.11101842 </v>
   <v>      -0.23684211       0.44736842       0.11101842 </v>
   <v>       0.07894737       0.43421053       0.13877302 </v>
   <v>      -0.50000000      -0.25000000       0.00000000 </v>
   <v>      -0.50000000      -0.50000000       0.00000000 </v>
   <v>      -0.50000000       0.25000000       0.00000000 </v>
   <v>       0.44736842       0.46052632       0.08326381 </v>
   <v>       0.44736842       0.21052632       0.08326381 </v>
   <v>      -0.05263158       0.46052632       0.08326381 </v>
   <v>       0.07894737      -0.31578947       0.13877302 </v>
   <v>      -0.10526316      -0.32894737       0.16652763 </v>
   <v>      -0.10526316       0.17105263       0.16652763 </v>
   <v>       0.21052632       0.15789474       0.19428223 </v>
   <v>      -0.42105263      -0.31578947       0.13877302 </v>
   <v>       0.31578947      -0.26315789       0.02775460 </v>
   <v>       0.26315789      -0.30263158       0.11101842 </v>
   <v>       0.21052632       0.40789474       0.19428223 </v>
   <v>      -0.42105263      -0.06578947       0.13877302 </v>
   <v>      -0.28947368      -0.09210526       0.19428223 </v>
   <v>       0.21052632      -0.09210526       0.19428223 </v>
   <v>      -0.28947368      -0.34210526       0.19428223 </v>
   <v>      -0.36842105       0.22368421       0.05550921 </v>
   <v>      -0.50000000       0.00000000       0.00000000 </v>
   <v>      -0.42105263       0.43421053       0.13877302 </v>
   <v>       0.44736842      -0.28947368       0.08326381 </v>
   <v>       0.44736842      -0.03947368       0.08326381 </v>
   <v>       0.02631579       0.14473684       0.22203684 </v>
   <v>       0.39473684       0.42105263       0.16652763 </v>
   <v>       0.39473684       0.17105263       0.16652763 </v>
   <v>       0.02631579      -0.10526316       0.22203684 </v>
   <v>      -0.10526316       0.42105263       0.16652763 </v>
   <v>      -0.15789474      -0.11842105       0.24979144 </v>
   <v>      -0.28947368       0.15789474       0.19428223 </v>
   <v>      -0.28947368       0.40789474       0.19428223 </v>
   <v>       0.02631579       0.39473684       0.22203684 </v>
   <v>       0.39473684      -0.07894737       0.16652763 </v>
   <v>       0.39473684      -0.32894737       0.16652763 </v>
   <v>       0.02631579      -0.35526316       0.22203684 </v>
   <v>      -0.15789474      -0.36842105       0.24979144 </v>
   <v>      -0.15789474       0.13157895       0.24979144 </v>
   <v>       0.21052632      -0.34210526       0.19428223 </v>
   <v>      -0.42105263       0.18421053       0.13877302 </v>
   <v>       0.34210526       0.13157895       0.24979144 </v>
   <v>       0.34210526       0.38157895       0.24979144 </v>
   <v>       0.15789474       0.11842105       0.27754605 </v>
   <v>      -0.47368421      -0.35526316       0.22203684 </v>
   <v>       0.15789474      -0.13157895       0.27754605 </v>
   <v>       0.15789474       0.36842105       0.27754605 </v>
   <v>      -0.47368421      -0.10526316       0.22203684 </v>
   <v>      -0.47368421       0.39473684       0.22203684 </v>
   <v>      -0.15789474       0.38157895       0.24979144 </v>
   <v>       0.34210526      -0.11842105       0.24979144 </v>
   <v>       0.34210526      -0.36842105       0.24979144 </v>
   <v>      -0.34210526      -0.38157895       0.27754605 </v>
   <v>      -0.34210526      -0.13157895       0.27754605 </v>
   <v>      -0.47368421       0.14473684       0.22203684 </v>
   <v>      -0.02631579      -0.14473684       0.30530065 </v>
   <v>      -0.02631579       0.10526316       0.30530065 </v>
   <v>       0.15789474      -0.38157895       0.27754605 </v>
   <v>      -0.34210526       0.36842105       0.27754605 </v>
   <v>      -0.34210526       0.11842105       0.27754605 </v>
   <v>      -0.02631579      -0.39473684       0.30530065 </v>
   <v>      -0.02631579       0.35526316       0.30530065 </v>
   <v>      -0.21052632      -0.15789474       0.33305526 </v>
   <v>      -0.21052632      -0.40789474       0.33305526 </v>
   <v>       0.28947368       0.09210526       0.33305526 </v>
   <v>      -0.21052632       0.09210526       0.33305526 </v>
   <v>       0.28947368       0.34210526       0.33305526 </v>
   <v>       0.47368421       0.35526316       0.30530065 </v>
   <v>       0.10526316       0.07894737       0.36080986 </v>
   <v>       0.47368421       0.10526316       0.30530065 </v>
   <v>       0.47368421      -0.39473684       0.30530065 </v>
   <v>       0.28947368      -0.15789474       0.33305526 </v>
   <v>       0.28947368      -0.40789474       0.33305526 </v>
   <v>       0.10526316       0.32894737       0.36080986 </v>
   <v>       0.10526316      -0.17105263       0.36080986 </v>
   <v>       0.47368421      -0.14473684       0.30530065 </v>
   <v>      -0.21052632       0.34210526       0.33305526 </v>
   <v>      -0.39473684      -0.17105263       0.36080986 </v>
   <v>      -0.39473684      -0.42105263       0.36080986 </v>
   <v>       0.10526316      -0.42105263       0.36080986 </v>
   <v>      -0.39473684       0.32894737       0.36080986 </v>
   <v>      -0.39473684       0.07894737       0.36080986 </v>
  </varray>
 </structure>
 <varray name="primitive_index" >
  <v type="int" >        1 </v>
  <v type="int" >       24 </v>
  <v type="int" >       17 </v>
  <v type="int" >        6 </v>
  <v type="int" >        8 </v>
  <v type="int" >       12 </v>
  <v type="int" >       13 </v>
  <v type="int" >       29 </v>
  <v type="int" >       32 </v>
  <v type="int" >       30 </v>
  <v type="int" >       11 </v>
  <v type="int" >       35 </v>
  <v type="int" >       34 </v>
  <v type="int" >       36 </v>
  <v type="int" >       23 </v>
  <v type="int" >       22 </v>
  <v type="int" >       16 </v>
  <v type="int" >       41 </v>
  <v type="int" >       19 </v>
  <v type="int" >       48 </v>
  <v type="int" >       10 </v>
  <v type="int" >       14 </v>
  <v type="int" >       15 </v>
  <v type="int" >       33 </v>
  <v type="int" >       40 </v>
  <v type="int" >        7 </v>
  <v type="int" >       20 </v>
  <v type="int" >       18 </v>
  <v type="int" >       53 </v>
  <v type="int" >       38 </v>
  <v type="int" >       37 </v>
  <v type="int" >       46 </v>
  <v type="int" >        2 </v>
  <v type="int" >        3 </v>
  <v type="int" >        4 </v>
  <v type="int" >       27 </v>
  <v type="int" >       28 </v>
  <v type="int" >       31 </v>
  <v type="int" >       47 </v>
  <v type="int" >       54 </v>
  <v type="int" >       56 </v>
  <v type="int" >       58 </v>
  <v type="int" >       43 </v>
  <v type="int" >        9 </v>
  <v type="int" >       39 </v>
  <v type="int" >       57 </v>
  <v type="int" >       42 </v>
  <v type="int" >       59 </v>
  <v type="int" >       64 </v>
  <v type="int" >       60 </v>
  <v type="int" >       21 </v>
  <v type="int" >        5 </v>
  <v type="int" >       44 </v>
  <v type="int" >       26 </v>
  <v type="int" >       25 </v>
  <v type="int" >       69 </v>
  <v type="int" >       51 </v>
  <v type="int" >       52 </v>
  <v type="int" >       72 </v>
  <v type="int" >       55 </v>
  <v type="int" >       76 </v>
  <v type="int" >       62 </v>
  <v type="int" >       61 </v>
  <v type="int" >       70 </v>
  <v type="int" >       49 </v>
  <v type="int" >       50 </v>
  <v type="int" >       71 </v>
  <v type="int" >       77 </v>
  <v type="int" >       80 </v>
  <v type="int" >       63 </v>
  <v type="int" >       45 </v>
  <v type="int" >       75 </v>
  <v type="int" >       74 </v>
  <v type="int" >       82 </v>
  <v type="int" >       66 </v>
  <v type="int" >       88 </v>
  <v type="int" >       81 </v>
  <v type="int" >       65 </v>
  <v type="int" >       67 </v>
  <v type="int" >       78 </v>
  <v type="int" >       79 </v>
  <v type="int" >       73 </v>
  <v type="int" >       84 </v>
  <v type="int" >       83 </v>
  <v type="int" >       68 </v>
  <v type="int" >       93 </v>
  <v type="int" >       96 </v>
  <v type="int" >       87 </v>
  <v type="int" >       85 </v>
  <v type="int" >       86 </v>
  <v type="int" >       94 </v>
  <v type="int" >       95 </v>
  <v type="int" >      100 </v>
  <v type="int" >      101 </v>
  <v type="int" >       99 </v>
  <v type="int" >      104 </v>
  <v type="int" >       98 </v>
  <v type="int" >       91 </v>
  <v type="int" >      105 </v>
  <v type="int" >       92 </v>
  <v type="int" >       90 </v>
  <v type="int" >      103 </v>
  <v type="int" >       97 </v>
  <v type="int" >      110 </v>
  <v type="int" >      112 </v>
  <v type="int" >       89 </v>
  <v type="int" >      102 </v>
  <v type="int" >      106 </v>
  <v type="int" >      107 </v>
  <v type="int" >      111 </v>
  <v type="int" >      108 </v>
  <v type="int" >      109 </v>
 </varray>
 <kpoints>
  <generation param="Monkhorst-Pack">
   <v type="int" name="divisions">       2        4        1 </v>
   <v name="usershift">      0.00000000       0.00000000       0.00000000 </v>
   <v name="genvec1">      0.50000000       0.00000000       0.00000000 </v>
   <v name="genvec2">      0.00000000       0.25000000       0.00000000 </v>
   <v name="genvec3">      0.00000000       0.00000000       1.00000000 </v>
   <v name="shift">      0.50000000       0.50000000       0.00000000 </v>
  </generation>
  <varray name="kpointlist" >
   <v>       0.25000000       0.12500000       0.00000000 </v>
   <v>      -0.25000000       0.12500000       0.00000000 </v>
   <v>       0.25000000       0.37500000       0.00000000 </v>
   <v>      -0.25000000       0.37500000       0.00000000 </v>
  </varray>
  <varray name="weights" >
   <v>       0.25000000 </v>
   <v>       0.25000000 </v>
   <v>       0.25000000 </v>
   <v>       0.25000000 </v>
  </varray>
 </kpoints>
 <parameters>
  <separator name="general" >
   <i type="string" name="SYSTEM">unknown system</i>
   <i type="logical" name="LCOMPAT"> F  </i>
  </separator>
  <separator name="electronic" >
   <i type="string" name="PREC">normal</i>
   <i name="ENMAX">    400.00000000</i>
   <i name="ENAUG">    374.51300000</i>
   <i name="EDIFF">      0.00010000</i>
   <i type="int" name="IALGO">    48</i>
   <i type="int" name="IWAVPR">    11</i>
   <i type="int" name="NBANDS">   612</i>
   <i name="NELECT">   1008.00000000</i>
   <i type="int" name="TURBO">     0</i>
   <i type="int" name="IRESTART">     0</i>
   <i type="int" name="NREBOOT">     0</i>
   <i type="int" name="NMIN">     0</i>
   <i name="EREF">      0.00000000</i>
   <separator name="electronic smearing" >
    <i type="int" name="ISMEAR">     1</i>
    <i name="SIGMA">      0.20000000</i>
    <i name="KSPACING">      0.50000000</i>
    <i type="logical" name="KGAMMA"> T  </i>
   </separator>
   <separator name="electronic projectors" >
    <i type="logical" name="LREAL"> T  </i>
    <v name="ROPT">      0.00000000</v>
    <i type="int" name="LMAXPAW">  -100</i>
    <i type="int" name="LMAXMIX">     2</i>
    <i type="logical" name="NLSPLINE"> F  </i>
   </separator>
   <separator name="electronic startup" >
    <i type="int" name="ISTART">     0</i>
    <i type="int" name="ICHARG">     2</i>
    <i type="int" name="INIWAV">     1</i>
   </separator>
   <separator name="electronic spin" >
    <i type="int" name="ISPIN">     2</i>
    <i type="logical" name="LNONCOLLINEAR"> F  </i>
    <v name="MAGMOM">      0.00000000      0.00000000      0.00000000      0.00000000      0.00000000      0.00000000      0.00000000      0.00000000      0.00000000      0.00000000      0.00000000      0.00000000      0.00000000      0.00000000      0.00000000      0.00000000      0.00000000      0.00000000      0.00000000      0.00000000
      0.00000000      0.00000000      0.00000000      0.00000000      0.00000000      0.00000000      0.00000000      0.00000000      0.00000000      0.00000000      0.00000000      0.00000000      0.00000000      0.00000000      0.00000000      0.00000000      0.00000000      0.00000000      0.00000000      0.00000000
      0.00000000      0.00000000      0.00000000      0.00000000      0.00000000      0.00000000      0.00000000      0.00000000      0.00000000      0.00000000      0.00000000      0.00000000      0.00000000      0.00000000      0.00000000      0.00000000      0.00000000      0.00000000      0.00000000      0.00000000
      0.00000000      0.00000000      0.00000000      0.00000000      0.00000000      0.00000000      0.00000000      0.00000000      0.00000000      0.00000000      0.00000000      0.00000000      0.00000000      0.00000000      0.00000000      0.00000000      0.00000000      0.00000000      0.00000000      0.00000000
      0.00000000      0.00000000      0.00000000      0.00000000      0.00000000      0.00000000      0.00000000      0.00000000      0.00000000      0.00000000      0.00000000      0.00000000      0.00000000      0.00000000      0.00000000      0.00000000      0.00000000      0.00000000      0.00000000      0.00000000
      0.00000000      0.00000000      0.00000000      0.00000000      0.00000000      0.00000000      0.00000000      0.00000000      0.00000000      0.00000000      0.00000000      0.00000000</v>
    <i name="NUPDOWN">     -1.00000000</i>
    <i type="logical" name="LSORBIT"> F  </i>
    <v name="SAXIS">      0.00000000      0.00000000      1.00000000</v>
    <i type="logical" name="LSPIRAL"> F  </i>
    <v name="QSPIRAL">      0.00000000      0.00000000      0.00000000</v>
    <i type="logical" name="LZEROZ"> F  </i>
   </separator>
   <separator name="electronic exchange-correlation" >
    <i type="logical" name="LASPH"> F  </i>
    <i type="logical" name="LMETAGGA"> F  </i>
   </separator>
   <separator name="electronic convergence" >
    <i type="int" name="NELM">    60</i>
    <i type="int" name="NELMDL">     0</i>
    <i type="int" name="NELMIN">     5</i>
    <i name="ENINI">    400.00000000</i>
    <separator name="electronic convergence detail" >
     <i type="logical" name="LDIAG"> T  </i>
     <i type="logical" name="LSUBROT"> F  </i>
     <i name="WEIMIN">      0.00100000</i>
     <i name="EBREAK">      0.00000004</i>
     <i name="DEPER">      0.30000000</i>
     <i type="int" name="NRMM">     4</i>
     <i name="TIME">      0.40000000</i>
    </separator>
   </separator>
   <separator name="electronic mixer" >
    <i name="AMIX">      0.40000000</i>
    <i name="BMIX">      1.00000000</i>
    <i name="AMIN">      0.10000000</i>
    <i name="AMIX_MAG">      1.60000000</i>
    <i name="BMIX_MAG">      1.00000000</i>
    <separator name="electronic mixer details" >
     <i type="int" name="IMIX">     4</i>
     <i type="logical" name="MIXFIRST"> F  </i>
     <i type="int" name="MAXMIX">   -45</i>
     <i name="WC">    100.00000000</i>
     <i type="int" name="INIMIX">     1</i>
     <i type="int" name="MIXPRE">     1</i>
     <i type="int" name="MREMOVE">     5</i>
    </separator>
   </separator>
   <separator name="electronic dipolcorrection" >
    <i type="logical" name="LDIPOL"> F  </i>
    <i type="logical" name="LMONO"> F  </i>
    <i type="int" name="IDIPOL">     0</i>
    <i name="EPSILON">      1.00000000</i>
    <v name="DIPOL">   -100.00000000   -100.00000000   -100.00000000</v>
    <i name="EFIELD">      0.00000000</i>
   </separator>
  </separator>
  <separator name="grids" >
   <i type="int" name="NGX">    70</i>
   <i type="int" name="NGY">    54</i>
   <i type="int" name="NGZ">   160</i>
   <i type="int" name="NGXF">   140</i>
   <i type="int" name="NGYF">   108</i>
   <i type="int" name="NGZF">   320</i>
   <i type="logical" name="ADDGRID"> F  </i>
  </separator>
  <separator name="ionic" >
   <i type="int" name="NSW">   100</i>
   <i type="int" name="IBRION">     3</i>
   <i type="int" name="MDALGO">     0</i>
   <i type="int" name="ISIF">     2</i>
   <i name="PSTRESS">      0.00000000</i>
   <i name="EDIFFG">     -0.03000000</i>
   <i type="int" name="NFREE">     0</i>
   <i name="POTIM">      0.03000000</i>
   <i name="SMASS">      0.30000000</i>
   <i name="SCALEE">      1.00000000</i>
  </separator>
  <separator name="ionic md" >
   <i name="TEBEG">      0.00010000</i>
   <i name="TEEND">      0.00010000</i>
   <i type="int" name="NBLOCK">     1</i>
   <i type="int" name="KBLOCK">   100</i>
   <i type="int" name="NPACO">   256</i>
   <i name="APACO">     16.00000000</i>
  </separator>
  <separator name="symmetry" >
   <i type="int" name="ISYM">     0</i>
   <i name="SYMPREC">      0.00001000</i>
  </separator>
  <separator name="dos" >
   <i type="int" name="LORBIT">     0</i>
   <v name="RWIGS">     -1.00000000</v>
   <i type="int" name="NEDOS">   301</i>
   <i name="EMIN">     10.00000000</i>
   <i name="EMAX">    -10.00000000</i>
   <i name="EFERMI">      0.00000000</i>
  </separator>
  <separator name="writing" >
   <i type="int" name="NWRITE">     2</i>
   <i type="logical" name="LWAVE"> F  </i>
   <i type="logical" name="LDOWNSAMPLE"> F  </i>
   <i type="logical" name="LCHARG"> F  </i>
   <i type="logical" name="LPARD"> F  </i>
   <i type="logical" name="LVTOT"> F  </i>
   <i type="logical" name="LVHAR"> F  </i>
   <i type="logical" name="LELF"> F  </i>
   <i type="logical" name="LOPTICS"> F  </i>
   <v name="STM">      0.00000000      0.00000000      0.00000000      0.00000000      0.00000000      0.00000000      0.00000000</v>
  </separator>
  <separator name="performance" >
   <i type="int" name="NPAR">    12</i>
   <i type="int" name="NSIM">    12</i>
   <i type="int" name="NBLK">    -1</i>
   <i type="logical" name="LPLANE"> T  </i>
   <i type="logical" name="LSCALAPACK"> T  </i>
   <i type="logical" name="LSCAAWARE"> F  </i>
   <i type="logical" name="LSCALU"> T  </i>
   <i type="logical" name="LASYNC"> F  </i>
   <i type="logical" name="LORBITALREAL"> F  </i>
  </separator>
  <separator name="miscellaneous" >
   <i type="int" name="IDIOT">     3</i>
   <i type="int" name="ISPECIAL">     0</i>
   <i type="logical" name="LMUSIC"> F  </i>
   <v name="POMASS">    102.90600000</v>
   <v name="DARWINR">      0.00000000</v>
   <v name="DARWINV">      1.00000000</v>
   <i type="logical" name="LCORR"> T  </i>
  </separator>
  <i type="logical" name="GGA_COMPAT"> T  </i>
  <i type="logical" name="LBERRY"> F  </i>
  <i type="int" name="ICORELEVEL">     0</i>
  <i type="logical" name="LDAU"> F  </i>
  <i type="int" name="I_CONSTRAINED_M">     0</i>
  <separator name="electronic exchange-correlation" >
   <i type="string" name="GGA">RP</i>
   <i type="int" name="VOSKOWN">     0</i>
   <i type="logical" name="LHFCALC"> F  </i>
   <i type="string" name="PRECFOCK"></i>
   <i type="logical" name="LSYMGRAD"> F  </i>
   <i type="logical" name="LHFONE"> F  </i>
   <i type="logical" name="LRHFCALC"> F  </i>
   <i type="logical" name="LTHOMAS"> F  </i>
   <i type="logical" name="LMODELHF"> F  </i>
   <i name="ENCUT4O">     -1.00000000</i>
   <i type="int" name="EXXOEP">     0</i>
   <i type="int" name="FOURORBIT">     0</i>
   <i name="AEXX">      0.00000000</i>
   <i name="HFALPHA">      0.00000000</i>
   <i name="MCALPHA">      0.00000000</i>
   <i name="ALDAX">      1.00000000</i>
   <i name="AGGAX">      1.00000000</i>
   <i name="ALDAC">      1.00000000</i>
   <i name="AGGAC">      1.00000000</i>
   <i type="int" name="NKREDX">     1</i>
   <i type="int" name="NKREDY">     1</i>
   <i type="int" name="NKREDZ">     1</i>
   <i type="logical" name="SHIFTRED"> F  </i>
   <i type="logical" name="ODDONLY"> F  </i>
   <i type="logical" name="EVENONLY"> F  </i>
   <i type="int" name="LMAXFOCK">     0</i>
   <i type="int" name="NMAXFOCKAE">     0</i>
   <i type="logical" name="LFOCKAEDFT"> F  </i>
   <i name="HFSCREEN">      0.00000000</i>
   <i name="HFSCREENC">      0.00000000</i>
   <i type="int" name="NBANDSGWLOW">     0</i>
  </separator>
  <separator name="vdW DFT" >
   <i type="logical" name="LUSE_VDW"> F  </i>
   <i name="Zab_VDW">     -0.84910000</i>
   <i name="PARAM1">      0.12340000</i>
   <i name="PARAM2">      1.00000000</i>
   <i name="PARAM3">      0.00000000</i>
  </separator>
  <separator name="model GW" >
   <i type="int" name="MODEL_GW">     0</i>
   <i name="MODEL_EPS0">     20.93936510</i>
   <i name="MODEL_ALPHA">      1.00000000</i>
  </separator>
  <separator name="linear response parameters" >
   <i type="logical" name="LEPSILON"> F  </i>
   <i type="logical" name="LRPA"> F  </i>
   <i type="logical" name="LNABLA"> F  </i>
   <i type="logical" name="LVEL"> F  </i>
   <i type="int" name="KINTER">     0</i>
   <i name="CSHIFT">      0.10000000</i>
   <i name="OMEGAMAX">     -1.00000000</i>
   <i name="DEG_THRESHOLD">      0.00200000</i>
   <i name="RTIME">     -0.10000000</i>
   <i name="WPLASMAI">      0.00000000</i>
   <v name="DFIELD">      0.00000000      0.00000000      0.00000000</v>
   <v name="WPLASMA">      0.00000000      0.00000000      0.00000000      0.00000000      0.00000000      0.00000000      0.00000000      0.00000000      0.00000000</v>
  </separator>
  <separator name="orbital magnetization" >
   <i type="logical" name="NUCIND"> F  </i>
   <v name="MAGPOS">      0.00000000      0.00000000      0.00000000</v>
   <i type="logical" name="LNICSALL"> T  </i>
   <i type="logical" name="ORBITALMAG"> F  </i>
   <i type="logical" name="LMAGBLOCH"> F  </i>
   <i type="logical" name="LCHIMAG"> F  </i>
   <i type="logical" name="LGAUGE"> T  </i>
   <i type="int" name="MAGATOM">     0</i>
   <v name="MAGDIPOL">      0.00000000      0.00000000      0.00000000</v>
   <v name="AVECCONST">      0.00000000      0.00000000      0.00000000</v>
  </separator>
  <separator name="response functions" >
   <i type="logical" name="LADDER"> F  </i>
   <i type="logical" name="LRPAFORCE"> F  </i>
   <i type="logical" name="LFXC"> F  </i>
   <i type="logical" name="LHARTREE"> T  </i>
   <i type="int" name="IBSE">     0</i>
   <v type="int" name="KPOINT">    -1     0     0     0</v>
   <i type="logical" name="LTCTE"> F  </i>
   <i type="logical" name="LTETE"> F  </i>
   <i type="logical" name="LTRIPLET"> F  </i>
   <i type="logical" name="LFXCEPS"> F  </i>
   <i type="logical" name="LFXHEG"> F  </i>
   <i type="int" name="NATURALO">     2</i>
   <i type="logical" name="L2ORDER"> F  </i>
   <i type="logical" name="LMP2LT"> F  </i>
   <i type="logical" name="LUSEW"> F  </i>
   <i name="ENCUTGW">     -2.00000000</i>
   <i name="ENCUTGWSOFT">     -2.00000000</i>
   <i name="ENCUTLF">     -1.00000000</i>
   <i type="int" name="LMAXMP2">    -1</i>
   <i name="SCISSOR">      0.00000000</i>
   <i type="int" name="NOMEGA">     0</i>
   <i type="int" name="NOMEGAR">     0</i>
   <i type="int" name="NBANDSGW">    -1</i>
   <i type="int" name="NBANDSO">    -1</i>
   <i type="int" name="NBANDSV">    -1</i>
   <i type="int" name="NELM">    60</i>
   <i type="int" name="NELMHF">     1</i>
   <i type="int" name="DIM">     3</i>
   <i type="int" name="ANTIRES">     0</i>
   <i name="OMEGAMAX">    -30.00000000</i>
   <i name="OMEGAMIN">    -30.00000000</i>
   <i name="OMEGATL">   -200.00000000</i>
   <i type="int" name="OMEGAGRID">   140</i>
   <i name="CSHIFT">     -0.10000000</i>
   <i type="logical" name="SELFENERGY"> F  </i>
   <i type="logical" name="LSPECTRAL"> F  </i>
   <i type="logical" name="LSPECTRALGW"> F  </i>
   <i type="logical" name="LSINGLES"> F  </i>
   <i type="logical" name="LFERMIGW"> F  </i>
   <i type="logical" name="ODDONLYGW"> F  </i>
   <i type="logical" name="EVENONLYGW"> F  </i>
   <i type="int" name="NKREDLFX">     1</i>
   <i type="int" name="NKREDLFY">     1</i>
   <i type="int" name="NKREDLFZ">     1</i>
   <i type="int" name="MAXMEM">  2800</i>
   <i type="int" name="TELESCOPE">     0</i>
   <i type="int" name="TAUPAR">     1</i>
   <i type="int" name="OMEGAPAR">    -1</i>
   <i name="LAMBDA">      1.00000000</i>
  </separator>
  <separator name="External order field" >
   <i name="OFIELD_KAPPA">      0.00000000</i>
   <v name="OFIELD_K">      0.00000000      0.00000000      0.00000000</v>
   <i name="OFIELD_Q6_NEAR">      0.00000000</i>
   <i name="OFIELD_Q6_FAR">      0.00000000</i>
   <i name="OFIELD_A">      0.00000000</i>
  </separator>
 </parameters>
 <atominfo>
  <atoms>     112 </atoms>
  <types>       1 </types>
  <array name="atoms" >
   <dimension dim="1">ion</dimension>
   <field type="string">element</field>
   <field type="int">atomtype</field>
   <set>
    <rc><c>Rh</c><c>   1</c></rc>
    <rc><c>Rh</c><c>   1</c></rc>
    <rc><c>Rh</c><c>   1</c></rc>
    <rc><c>Rh</c><c>   1</c></rc>
    <rc><c>Rh</c><c>   1</c></rc>
    <rc><c>Rh</c><c>   1</c></rc>
    <rc><c>Rh</c><c>   1</c></rc>
    <rc><c>Rh</c><c>   1</c></rc>
    <rc><c>Rh</c><c>   1</c></rc>
    <rc><c>Rh</c><c>   1</c></rc>
    <rc><c>Rh</c><c>   1</c></rc>
    <rc><c>Rh</c><c>   1</c></rc>
    <rc><c>Rh</c><c>   1</c></rc>
    <rc><c>Rh</c><c>   1</c></rc>
    <rc><c>Rh</c><c>   1</c></rc>
    <rc><c>Rh</c><c>   1</c></rc>
    <rc><c>Rh</c><c>   1</c></rc>
    <rc><c>Rh</c><c>   1</c></rc>
    <rc><c>Rh</c><c>   1</c></rc>
    <rc><c>Rh</c><c>   1</c></rc>
    <rc><c>Rh</c><c>   1</c></rc>
    <rc><c>Rh</c><c>   1</c></rc>
    <rc><c>Rh</c><c>   1</c></rc>
    <rc><c>Rh</c><c>   1</c></rc>
    <rc><c>Rh</c><c>   1</c></rc>
    <rc><c>Rh</c><c>   1</c></rc>
    <rc><c>Rh</c><c>   1</c></rc>
    <rc><c>Rh</c><c>   1</c></rc>
    <rc><c>Rh</c><c>   1</c></rc>
    <rc><c>Rh</c><c>   1</c></rc>
    <rc><c>Rh</c><c>   1</c></rc>
    <rc><c>Rh</c><c>   1</c></rc>
    <rc><c>Rh</c><c>   1</c></rc>
    <rc><c>Rh</c><c>   1</c></rc>
    <rc><c>Rh</c><c>   1</c></rc>
    <rc><c>Rh</c><c>   1</c></rc>
    <rc><c>Rh</c><c>   1</c></rc>
    <rc><c>Rh</c><c>   1</c></rc>
    <rc><c>Rh</c><c>   1</c></rc>
    <rc><c>Rh</c><c>   1</c></rc>
    <rc><c>Rh</c><c>   1</c></rc>
    <rc><c>Rh</c><c>   1</c></rc>
    <rc><c>Rh</c><c>   1</c></rc>
    <rc><c>Rh</c><c>   1</c></rc>
    <rc><c>Rh</c><c>   1</c></rc>
    <rc><c>Rh</c><c>   1</c></rc>
    <rc><c>Rh</c><c>   1</c></rc>
    <rc><c>Rh</c><c>   1</c></rc>
    <rc><c>Rh</c><c>   1</c></rc>
    <rc><c>Rh</c><c>   1</c></rc>
    <rc><c>Rh</c><c>   1</c></rc>
    <rc><c>Rh</c><c>   1</c></rc>
    <rc><c>Rh</c><c>   1</c></rc>
    <rc><c>Rh</c><c>   1</c></rc>
    <rc><c>Rh</c><c>   1</c></rc>
    <rc><c>Rh</c><c>   1</c></rc>
    <rc><c>Rh</c><c>   1</c></rc>
    <rc><c>Rh</c><c>   1</c></rc>
    <rc><c>Rh</c><c>   1</c></rc>
    <rc><c>Rh</c><c>   1</c></rc>
    <rc><c>Rh</c><c>   1</c></rc>
    <rc><c>Rh</c><c>   1</c></rc>
    <rc><c>Rh</c><c>   1</c></rc>
    <rc><c>Rh</c><c>   1</c></rc>
    <rc><c>Rh</c><c>   1</c></rc>
    <rc><c>Rh</c><c>   1</c></rc>
    <rc><c>Rh</c><c>   1</c></rc>
    <rc><c>Rh</c><c>   1</c></rc>
    <rc><c>Rh</c><c>   1</c></rc>
    <rc><c>Rh</c><c>   1</c></rc>
    <rc><c>Rh</c><c>   1</c></rc>
    <rc><c>Rh</c><c>   1</c></rc>
    <rc><c>Rh</c><c>   1</c></rc>
    <rc><c>Rh</c><c>   1</c></rc>
    <rc><c>Rh</c><c>   1</c></rc>
    <rc><c>Rh</c><c>   1</c></rc>
    <rc><c>Rh</c><c>   1</c></rc>
    <rc><c>Rh</c><c>   1</c></rc>
    <rc><c>Rh</c><c>   1</c></rc>
    <rc><c>Rh</c><c>   1</c></rc>
    <rc><c>Rh</c><c>   1</c></rc>
    <rc><c>Rh</c><c>   1</c></rc>
    <rc><c>Rh</c><c>   1</c></rc>
    <rc><c>Rh</c><c>   1</c></rc>
    <rc><c>Rh</c><c>   1</c></rc>
    <rc><c>Rh</c><c>   1</c></rc>
    <rc><c>Rh</c><c>   1</c></rc>
    <rc><c>Rh</c><c>   1</c></rc>
    <rc><c>Rh</c><c>   1</c></rc>
    <rc><c>Rh</c><c>   1</c></rc>
    <rc><c>Rh</c><c>   1</c></rc>
    <rc><c>Rh</c><c>   1</c></rc>
    <rc><c>Rh</c><c>   1</c></rc>
    <rc><c>Rh</c><c>   1</c></rc>
    <rc><c>Rh</c><c>   1</c></rc>
    <rc><c>Rh</c><c>   1</c></rc>
    <rc><c>Rh</c><c>   1</c></rc>
    <rc><c>Rh</c><c>   1</c></rc>
    <rc><c>Rh</c><c>   1</c></rc>
    <rc><c>Rh</c><c>   1</c></rc>
    <rc><c>Rh</c><c>   1</c></rc>
    <rc><c>Rh</c><c>   1</c></rc>
    <rc><c>Rh</c><c>   1</c></rc>
    <rc><c>Rh</c><c>   1</c></rc>
    <rc><c>Rh</c><c>   1</c></rc>
    <rc><c>Rh</c><c>   1</c></rc>
    <rc><c>Rh</c><c>   1</c></rc>
    <rc><c>Rh</c><c>   1</c></rc>
    <rc><c>Rh</c><c>   1</c></rc>
    <rc><c>Rh</c><c>   1</c></rc>
    <rc><c>Rh</c><c>   1</c></rc>
    <rc><c>Rh</c><c>   1</c></rc>
   </set>
  </array>
  <array name="atomtypes" >
   <dimension dim="1">type</dimension>
   <field type="int">atomspertype</field>
   <field type="string">element</field>
   <field>mass</field>
   <field>valence</field>
   <field type="string">pseudopotential</field>
   <set>
    <rc><c> 112</c><c>Rh</c><c>    102.90600000</c><c>      9.00000000</c><c>  PAW_PBE Rh 04Feb2005                  </c></rc>
   </set>
  </array>
 </atominfo>
 <structure name="initialpos" >
  <crystal>
   <varray name="basis" >
    <v>      14.16366987       0.00000000       0.00000000 </v>
    <v>      -6.07014423       8.81971509       0.00000000 </v>
    <v>       0.00000000       0.00000000      31.28959415 </v>
   </varray>
   <i name="volume">   3908.68148614 </i>
   <varray name="rec_basis" >
    <v>       0.07060317       0.04859243       0.00000000 </v>
    <v>       0.00000000       0.11338235       0.00000000 </v>
    <v>       0.00000000       0.00000000       0.03195951 </v>
   </varray>
  </crystal>
  <varray name="positions" >
   <v>       0.00000000       0.00000000       0.00000000 </v>
   <v>       0.50000000       0.75000000       0.00000000 </v>
   <v>       0.50000000       0.50000000       0.00000000 </v>
   <v>       0.50000000       0.25000000       0.00000000 </v>
   <v>       0.50000000       0.00000000       0.00000000 </v>
   <v>       0.00000000       0.25000000       0.00000000 </v>
   <v>       0.00000000       0.50000000       0.00000000 </v>
   <v>       0.00000000       0.75000000       0.00000000 </v>
   <v>       0.31578947       0.73684211       0.02775460 </v>
   <v>       0.31578947       0.48684211       0.02775460 </v>
   <v>       0.31578947       0.23684211       0.02775460 </v>
   <v>       0.81578947       0.98684211       0.02775460 </v>
   <v>       0.81578947       0.73684211       0.02775460 </v>
   <v>       0.81578947       0.48684211       0.02775460 </v>
   <v>       0.31578947       0.98684211       0.02775460 </v>
   <v>       0.81578947       0.23684211       0.02775460 </v>
   <v>       0.13157895       0.22368421       0.05550921 </v>
   <v>       0.63157895       0.97368421       0.05550921 </v>
   <v>       0.63157895       0.72368421       0.05550921 </v>
   <v>       0.63157895       0.47368421       0.05550921 </v>
   <v>       0.63157895       0.22368421       0.05550921 </v>
   <v>       0.13157895       0.47368421       0.05550921 </v>
   <v>       0.13157895       0.72368421       0.05550921 </v>
   <v>       0.13157895       0.97368421       0.05550921 </v>
   <v>       0.44736842       0.96052632       0.08326381 </v>
   <v>       0.44736842       0.71052632       0.08326381 </v>
   <v>       0.44736842       0.46052632       0.08326381 </v>
   <v>       0.44736842       0.21052632       0.08326381 </v>
   <v>       0.94736842       0.96052632       0.08326381 </v>
   <v>       0.94736842       0.71052632       0.08326381 </v>
   <v>       0.94736842       0.46052632       0.08326381 </v>
   <v>       0.94736842       0.21052632       0.08326381 </v>
   <v>       0.26315789       0.44736842       0.11101842 </v>
   <v>       0.26315789       0.19736842       0.11101842 </v>
   <v>       0.76315789       0.94736842       0.11101842 </v>
   <v>       0.76315789       0.69736842       0.11101842 </v>
   <v>       0.76315789       0.44736842       0.11101842 </v>
   <v>       0.76315789       0.19736842       0.11101842 </v>
   <v>       0.26315789       0.69736842       0.11101842 </v>
   <v>       0.26315789       0.94736842       0.11101842 </v>
   <v>       0.07894737       0.18421053       0.13877302 </v>
   <v>       0.57894737       0.93421053       0.13877302 </v>
   <v>       0.57894737       0.68421053       0.13877302 </v>
   <v>       0.57894737       0.43421053       0.13877302 </v>
   <v>       0.57894737       0.18421053       0.13877302 </v>
   <v>       0.07894737       0.43421053       0.13877302 </v>
   <v>       0.07894737       0.68421053       0.13877302 </v>
   <v>       0.07894737       0.93421053       0.13877302 </v>
   <v>       0.39473684       0.92105263       0.16652763 </v>
   <v>       0.39473684       0.67105263       0.16652763 </v>
   <v>       0.39473684       0.42105263       0.16652763 </v>
   <v>       0.39473684       0.17105263       0.16652763 </v>
   <v>       0.89473684       0.92105263       0.16652763 </v>
   <v>       0.89473684       0.67105263       0.16652763 </v>
   <v>       0.89473684       0.42105263       0.16652763 </v>
   <v>       0.89473684       0.17105263       0.16652763 </v>
   <v>       0.21052632       0.40789474       0.19428223 </v>
   <v>       0.21052632       0.15789474       0.19428223 </v>
   <v>       0.71052632       0.90789474       0.19428223 </v>
   <v>       0.71052632       0.65789474       0.19428223 </v>
   <v>       0.71052632       0.40789474       0.19428223 </v>
   <v>       0.71052632       0.15789474       0.19428223 </v>
   <v>       0.21052632       0.65789474       0.19428223 </v>
   <v>       0.21052632       0.90789474       0.19428223 </v>
   <v>       0.52631579       0.89473684       0.22203684 </v>
   <v>       0.52631579       0.64473684       0.22203684 </v>
   <v>       0.52631579       0.39473684       0.22203684 </v>
   <v>       0.52631579       0.14473684       0.22203684 </v>
   <v>       0.02631579       0.14473684       0.22203684 </v>
   <v>       0.02631579       0.39473684       0.22203684 </v>
   <v>       0.02631579       0.64473684       0.22203684 </v>
   <v>       0.02631579       0.89473684       0.22203684 </v>
   <v>       0.34210526       0.63157895       0.24979144 </v>
   <v>       0.34210526       0.38157895       0.24979144 </v>
   <v>       0.34210526       0.13157895       0.24979144 </v>
   <v>       0.84210526       0.88157895       0.24979144 </v>
   <v>       0.84210526       0.63157895       0.24979144 </v>
   <v>       0.84210526       0.38157895       0.24979144 </v>
   <v>       0.34210526       0.88157895       0.24979144 </v>
   <v>       0.84210526       0.13157895       0.24979144 </v>
   <v>       0.15789474       0.36842105       0.27754605 </v>
   <v>       0.15789474       0.11842105       0.27754605 </v>
   <v>       0.65789474       0.86842105       0.27754605 </v>
   <v>       0.65789474       0.61842105       0.27754605 </v>
   <v>       0.65789474       0.36842105       0.27754605 </v>
   <v>       0.65789474       0.11842105       0.27754605 </v>
   <v>       0.15789474       0.61842105       0.27754605 </v>
   <v>       0.15789474       0.86842105       0.27754605 </v>
   <v>       0.47368421       0.85526316       0.30530065 </v>
   <v>       0.47368421       0.60526316       0.30530065 </v>
   <v>       0.47368421       0.35526316       0.30530065 </v>
   <v>       0.47368421       0.10526316       0.30530065 </v>
   <v>       0.97368421       0.85526316       0.30530065 </v>
   <v>       0.97368421       0.60526316       0.30530065 </v>
   <v>       0.97368421       0.35526316       0.30530065 </v>
   <v>       0.97368421       0.10526316       0.30530065 </v>
   <v>       0.28947368       0.59210526       0.33305526 </v>
   <v>       0.28947368       0.34210526       0.33305526 </v>
   <v>       0.28947368       0.09210526       0.33305526 </v>
   <v>       0.78947368       0.84210526       0.33305526 </v>
   <v>       0.78947368       0.59210526       0.33305526 </v>
   <v>       0.78947368       0.34210526       0.33305526 </v>
   <v>       0.28947368       0.84210526       0.33305526 </v>
   <v>       0.78947368       0.09210526       0.33305526 </v>
   <v>       0.10526316       0.07894737       0.36080986 </v>
   <v>       0.60526316       0.82894737       0.36080986 </v>
   <v>       0.60526316       0.57894737       0.36080986 </v>
   <v>       0.60526316       0.32894737       0.36080986 </v>
   <v>       0.60526316       0.07894737       0.36080986 </v>
   <v>       0.10526316       0.32894737       0.36080986 </v>
   <v>       0.10526316       0.57894737       0.36080986 </v>
   <v>       0.10526316       0.82894737       0.36080986 </v>
  </varray>
  <varray name="selective"  type="logical" >
   <v type="logical" >  F  F  F </v>
   <v type="logical" >  F  F  F </v>
   <v type="logical" >  F  F  F </v>
   <v type="logical" >  F  F  F </v>
   <v type="logical" >  F  F  F </v>
   <v type="logical" >  F  F  F </v>
   <v type="logical" >  F  F  F </v>
   <v type="logical" >  F  F  F </v>
   <v type="logical" >  F  F  F </v>
   <v type="logical" >  F  F  F </v>
   <v type="logical" >  F  F  F </v>
   <v type="logical" >  F  F  F </v>
   <v type="logical" >  F  F  F </v>
   <v type="logical" >  F  F  F </v>
   <v type="logical" >  F  F  F </v>
   <v type="logical" >  F  F  F </v>
   <v type="logical" >  F  F  F </v>
   <v type="logical" >  F  F  F </v>
   <v type="logical" >  F  F  F </v>
   <v type="logical" >  F  F  F </v>
   <v type="logical" >  F  F  F </v>
   <v type="logical" >  F  F  F </v>
   <v type="logical" >  F  F  F </v>
   <v type="logical" >  F  F  F </v>
   <v type="logical" >  F  F  F </v>
   <v type="logical" >  F  F  F </v>
   <v type="logical" >  F  F  F </v>
   <v type="logical" >  F  F  F </v>
   <v type="logical" >  F  F  F </v>
   <v type="logical" >  F  F  F </v>
   <v type="logical" >  F  F  F </v>
   <v type="logical" >  F  F  F </v>
   <v type="logical" >  F  F  F </v>
   <v type="logical" >  F  F  F </v>
   <v type="logical" >  F  F  F </v>
   <v type="logical" >  F  F  F </v>
   <v type="logical" >  F  F  F </v>
   <v type="logical" >  F  F  F </v>
   <v type="logical" >  F  F  F </v>
   <v type="logical" >  F  F  F </v>
   <v type="logical" >  F  F  F </v>
   <v type="logical" >  F  F  F </v>
   <v type="logical" >  F  F  F </v>
   <v type="logical" >  F  F  F </v>
   <v type="logical" >  F  F  F </v>
   <v type="logical" >  F  F  F </v>
   <v type="logical" >  F  F  F </v>
   <v type="logical" >  F  F  F </v>
   <v type="logical" >  F  F  F </v>
   <v type="logical" >  F  F  F </v>
   <v type="logical" >  F  F  F </v>
   <v type="logical" >  F  F  F </v>
   <v type="logical" >  F  F  F </v>
   <v type="logical" >  F  F  F </v>
   <v type="logical" >  F  F  F </v>
   <v type="logical" >  F  F  F </v>
   <v type="logical" >  F  F  F </v>
   <v type="logical" >  F  F  F </v>
   <v type="logical" >  F  F  F </v>
   <v type="logical" >  F  F  F </v>
   <v type="logical" >  F  F  F </v>
   <v type="logical" >  F  F  F </v>
   <v type="logical" >  F  F  F </v>
   <v type="logical" >  F  F  F </v>
   <v type="logical" >  F  F  F </v>
   <v type="logical" >  F  F  F </v>
   <v type="logical" >  F  F  F </v>
   <v type="logical" >  F  F  F </v>
   <v type="logical" >  F  F  F </v>
   <v type="logical" >  F  F  F </v>
   <v type="logical" >  F  F  F </v>
   <v type="logical" >  F  F  F </v>
   <v type="logical" >  F  F  F </v>
   <v type="logical" >  F  F  F </v>
   <v type="logical" >  F  F  F </v>
   <v type="logical" >  F  F  F </v>
   <v type="logical" >  F  F  F </v>
   <v type="logical" >  F  F  F </v>
   <v type="logical" >  F  F  F </v>
   <v type="logical" >  F  F  F </v>
   <v type="logical" >  T  T  T </v>
   <v type="logical" >  T  T  T </v>
   <v type="logical" >  T  T  T </v>
   <v type="logical" >  T  T  T </v>
   <v type="logical" >  T  T  T </v>
   <v type="logical" >  T  T  T </v>
   <v type="logical" >  T  T  T </v>
   <v type="logical" >  T  T  T </v>
   <v type="logical" >  T  T  T </v>
   <v type="logical" >  T  T  T </v>
   <v type="logical" >  T  T  T </v>
   <v type="logical" >  T  T  T </v>
   <v type="logical" >  T  T  T </v>
   <v type="logical" >  T  T  T </v>
   <v type="logical" >  T  T  T </v>
   <v type="logical" >  T  T  T </v>
   <v type="logical" >  T  T  T </v>
   <v type="logical" >  T  T  T </v>
   <v type="logical" >  T  T  T </v>
   <v type="logical" >  T  T  T </v>
   <v type="logical" >  T  T  T </v>
   <v type="logical" >  T  T  T </v>
   <v type="logical" >  T  T  T </v>
   <v type="logical" >  T  T  T </v>
   <v type="logical" >  T  T  T </v>
   <v type="logical" >  T  T  T </v>
   <v type="logical" >  T  T  T </v>
   <v type="logical" >  T  T  T </v>
   <v type="logical" >  T  T  T </v>
   <v type="logical" >  T  T  T </v>
   <v type="logical" >  T  T  T </v>
   <v type="logical" >  T  T  T </v>
  </varray>
  <nose>
   <v>       0.30000000       0.00000000       0.00010000       0.00010000 </v>
  </nose>
 </structure>
 <calculation>
  <scstep>
   <time name="diag">    5.58    5.60</time>
   <time name="diis">    6.16    6.18</time>
   <time name="orth">    1.80    1.81</time>
   <time name="total">   13.71   13.76</time>
   <energy>
    <i name="alphaZ">   1779.96973948 </i>
    <i name="ewald"> 642263.68134072 </i>
    <i name="hartreedc">-714969.54851668 </i>
    <i name="XCdc">  -1925.20584521 </i>
    <i name="pawpsdc">  67959.59550704 </i>
    <i name="pawaedc"> -63170.36588226 </i>
    <i name="eentropy">      0.01655997 </i>
    <i name="bandstr">  10674.54324335 </i>
    <i name="atom">  68983.85746649 </i>
    <i name="e_fr_energy">  11596.54361290 </i>
    <i name="e_wo_entrp">  11596.52705293 </i>
    <i name="e_0_energy">  11596.53809291 </i>
   </energy>
  </scstep>
  <scstep>
   <time name="diag">    5.52    5.54</time>
   <time name="diis">    6.17    6.19</time>
   <time name="orth">    1.81    1.82</time>
   <time name="total">   13.51   13.55</time>
   <energy>
    <i name="e_fr_energy">   3073.54823377 </i>
    <i name="e_wo_entrp">   3073.59644136 </i>
    <i name="e_0_energy">   3073.56430297 </i>
   </energy>
  </scstep>
  <scstep>
   <time name="diag">    5.60    5.61</time>
   <time name="diis">    6.18    6.20</time>
   <time name="orth">    1.81    1.81</time>
   <time name="total">   13.58   13.62</time>
   <energy>
    <i name="e_fr_energy">    774.54203876 </i>
    <i name="e_wo_entrp">    774.50540937 </i>
    <i name="e_0_energy">    774.52982896 </i>
   </energy>
  </scstep>
  <scstep>
   <time name="diag">    5.52    5.53</time>
   <time name="diis">    6.18    6.20</time>
   <time name="orth">    1.81    1.81</time>
   <time name="total">   13.50   13.54</time>
   <energy>
    <i name="e_fr_energy">   -179.59444870 </i>
    <i name="e_wo_entrp">   -179.56091665 </i>
    <i name="e_0_energy">   -179.58327135 </i>
   </energy>
  </scstep>
  <scstep>
   <time name="diag">    5.61    5.62</time>
   <time name="diis">    6.18    6.20</time>
   <time name="orth">    1.82    1.82</time>
   <time name="total">   13.61   13.65</time>
   <energy>
    <i name="e_fr_energy">   -464.92760624 </i>
    <i name="e_wo_entrp">   -464.92632190 </i>
    <i name="e_0_energy">   -464.92717812 </i>
   </energy>
  </scstep>
  <scstep>
   <time name="diag">    5.52    5.54</time>
   <time name="diis">    6.18    6.20</time>
   <time name="orth">    1.81    1.81</time>
   <time name="total">   13.52   13.56</time>
   <energy>
    <i name="e_fr_energy">   -599.43420846 </i>
    <i name="e_wo_entrp">   -599.38360583 </i>
    <i name="e_0_energy">   -599.41734092 </i>
   </energy>
  </scstep>
  <scstep>
   <time name="diag">    5.58    5.60</time>
   <time name="diis">    6.18    6.20</time>
   <time name="orth">    1.81    1.81</time>
   <time name="total">   13.57   13.62</time>
   <energy>
    <i name="e_fr_energy">   -663.54612039 </i>
    <i name="e_wo_entrp">   -663.51505834 </i>
    <i name="e_0_energy">   -663.53576637 </i>
   </energy>
  </scstep>
  <scstep>
   <time name="diag">    5.53    5.55</time>
   <time name="diis">    6.19    6.21</time>
   <time name="orth">    1.81    1.81</time>
   <time name="total">   13.53   13.58</time>
   <energy>
    <i name="e_fr_energy">   -702.10420091 </i>
    <i name="e_wo_entrp">   -702.12350695 </i>
    <i name="e_0_energy">   -702.11063625 </i>
   </energy>
  </scstep>
  <scstep>
   <time name="diag">    5.54    5.55</time>
   <time name="diis">   15.34   15.40</time>
   <time name="orth">    1.82    1.82</time>
   <time name="total">   22.70   22.77</time>
   <energy>
    <i name="e_fr_energy">   -745.38007559 </i>
    <i name="e_wo_entrp">   -745.50098496 </i>
    <i name="e_0_energy">   -745.42037871 </i>
   </energy>
  </scstep>
  <scstep>
   <time name="diag">    5.60    5.62</time>
   <time name="diis">   16.52   16.58</time>
   <time name="orth">    1.81    1.81</time>
   <time name="total">   23.94   24.02</time>
   <energy>
    <i name="e_fr_energy">   -755.50615759 </i>
    <i name="e_wo_entrp">   -755.66162220 </i>
    <i name="e_0_energy">   -755.55797913 </i>
   </energy>
  </scstep>
  <scstep>
   <time name="diag">    5.54    5.56</time>
   <time name="diis">   15.97   16.03</time>
   <time name="orth">    1.90    1.90</time>
   <time name="total">   23.42   23.50</time>
   <energy>
    <i name="e_fr_energy">   -758.28542505 </i>
    <i name="e_wo_entrp">   -758.46169565 </i>
    <i name="e_0_energy">   -758.34418192 </i>
   </energy>
  </scstep>
  <scstep>
   <time name="diag">    5.53    5.55</time>
   <time name="diis">   15.09   15.14</time>
   <time name="orth">    1.81    1.81</time>
   <time name="total">   23.48   23.55</time>
   <energy>
    <i name="e_fr_energy">   -758.95027196 </i>
    <i name="e_wo_entrp">   -759.12437691 </i>
    <i name="e_0_energy">   -759.00830694 </i>
   </energy>
  </scstep>
  <scstep>
   <time name="diag">    5.56    5.57</time>
   <time name="diis">   11.70   11.74</time>
   <time name="orth">    1.83    1.83</time>
   <time name="total">   20.31   20.38</time>
   <energy>
    <i name="e_fr_energy">   -744.89456807 </i>
    <i name="e_wo_entrp">   -744.76471766 </i>
    <i name="e_0_energy">   -744.85128460 </i>
   </energy>
  </scstep>
  <scstep>
   <time name="diag">    5.59    5.61</time>
   <time name="diis">   14.09   14.14</time>
   <time name="orth">    1.81    1.82</time>
   <time name="total">   22.71   22.79</time>
   <energy>
    <i name="e_fr_energy">  -1385.05890624 </i>
    <i name="e_wo_entrp">  -1385.03802002 </i>
    <i name="e_0_energy">  -1385.05194417 </i>
   </energy>
  </scstep>
  <scstep>
   <time name="diag">    5.54    5.56</time>
   <time name="diis">   11.51   11.55</time>
   <time name="orth">    2.02    2.03</time>
   <time name="total">   20.31   20.38</time>
   <energy>
    <i name="e_fr_energy">   -938.75608840 </i>
    <i name="e_wo_entrp">   -938.72462314 </i>
    <i name="e_0_energy">   -938.74559998 </i>
   </energy>
  </scstep>
  <scstep>
   <time name="diag">    5.54    5.56</time>
   <time name="diis">   11.28   11.31</time>
   <time name="orth">    1.81    1.82</time>
   <time name="total">   19.86   19.92</time>
   <energy>
    <i name="e_fr_energy">   -850.19688100 </i>
    <i name="e_wo_entrp">   -850.25783016 </i>
    <i name="e_0_energy">   -850.21719739 </i>
   </energy>
  </scstep>
  <scstep>
   <time name="diag">    5.64    5.65</time>
   <time name="diis">   12.29   12.34</time>
   <time name="orth">    1.82    1.82</time>
   <time name="total">   20.97   21.04</time>
   <energy>
    <i name="e_fr_energy">   -823.95906125 </i>
    <i name="e_wo_entrp">   -823.96736773 </i>
    <i name="e_0_energy">   -823.96183008 </i>
   </energy>
  </scstep>
  <scstep>
   <time name="diag">    5.56    5.58</time>
   <time name="diis">   11.16   11.19</time>
   <time name="orth">    1.81    1.82</time>
   <time name="total">   19.76   19.83</time>
   <energy>
    <i name="e_fr_energy">   -727.21812900 </i>
    <i name="e_wo_entrp">   -727.37401315 </i>
    <i name="e_0_energy">   -727.27009039 </i>
   </energy>
  </scstep>
  <scstep>
   <time name="diag">    5.56    5.57</time>
   <time name="diis">   11.57   11.61</time>
   <time name="orth">    1.82    1.82</time>
   <time name="total">   20.19   20.25</time>
   <energy>
    <i name="e_fr_energy">   -717.94441192 </i>
    <i name="e_wo_entrp">   -717.94708785 </i>
    <i name="e_0_energy">   -717.94530389 </i>
   </energy>
  </scstep>
  <scstep>
   <time name="diag">    5.54    5.56</time>
   <time name="diis">   11.45   11.49</time>
   <time name="orth">    1.82    1.82</time>
   <time name="total">   20.03   20.10</time>
   <energy>
    <i name="e_fr_energy">   -711.31571840 </i>
    <i name="e_wo_entrp">   -711.38862999 </i>
    <i name="e_0_energy">   -711.34002226 </i>
   </energy>
  </scstep>
  <scstep>
   <time name="diag">    5.56    5.57</time>
   <time name="diis">   11.26   11.30</time>
   <time name="orth">    1.83    1.83</time>
   <time name="total">   19.89   19.95</time>
   <energy>
    <i name="e_fr_energy">   -709.63263918 </i>
    <i name="e_wo_entrp">   -709.87642153 </i>
    <i name="e_0_energy">   -709.71389996 </i>
   </energy>
  </scstep>
  <scstep>
   <time name="diag">    5.55    5.56</time>
   <time name="diis">   11.89   11.94</time>
   <time name="orth">    1.82    1.82</time>
   <time name="total">   20.50   20.56</time>
   <energy>
    <i name="e_fr_energy">   -709.17571909 </i>
    <i name="e_wo_entrp">   -709.42707958 </i>
    <i name="e_0_energy">   -709.25950592 </i>
   </energy>
  </scstep>
  <scstep>
   <time name="diag">    5.54    5.56</time>
   <time name="diis">   11.31   11.35</time>
   <time name="orth">    1.80    1.81</time>
   <time name="total">   19.89   19.99</time>
   <energy>
    <i name="e_fr_energy">   -708.70976776 </i>
    <i name="e_wo_entrp">   -708.95074462 </i>
    <i name="e_0_energy">   -708.79009338 </i>
   </energy>
  </scstep>
  <scstep>
   <time name="diag">    5.56    5.58</time>
   <time name="diis">   11.78   11.82</time>
   <time name="orth">    1.83    1.83</time>
   <time name="total">   20.41   20.47</time>
   <energy>
    <i name="e_fr_energy">   -708.63993828 </i>
    <i name="e_wo_entrp">   -708.87869648 </i>
    <i name="e_0_energy">   -708.71952434 </i>
   </energy>
  </scstep>
  <scstep>
   <time name="diag">    5.58    5.59</time>
   <time name="diis">   11.37   11.41</time>
   <time name="orth">    1.82    1.82</time>
   <time name="total">   20.00   20.07</time>
   <energy>
    <i name="e_fr_energy">   -708.71462725 </i>
    <i name="e_wo_entrp">   -708.95049359 </i>
    <i name="e_0_energy">   -708.79324937 </i>
   </energy>
  </scstep>
  <scstep>
   <time name="diag">    5.56    5.57</time>
   <time name="diis">   11.23   11.27</time>
   <time name="orth">    1.83    1.84</time>
   <time name="total">   19.85   19.92</time>
   <energy>
    <i name="e_fr_energy">   -708.71600115 </i>
    <i name="e_wo_entrp">   -708.94840629 </i>
    <i name="e_0_energy">   -708.79346953 </i>
   </energy>
  </scstep>
  <scstep>
   <time name="diag">    5.64    5.66</time>
   <time name="diis">   11.20   11.23</time>
   <time name="orth">    1.81    1.81</time>
   <time name="total">   19.89   19.95</time>
   <energy>
    <i name="e_fr_energy">   -708.66159732 </i>
    <i name="e_wo_entrp">   -708.89552237 </i>
    <i name="e_0_energy">   -708.73957233 </i>
   </energy>
  </scstep>
  <scstep>
   <time name="diag">    5.55    5.57</time>
   <time name="diis">   11.25   11.29</time>
   <time name="orth">    1.82    1.82</time>
   <time name="total">   19.84   19.91</time>
   <energy>
    <i name="e_fr_energy">   -708.53513614 </i>
    <i name="e_wo_entrp">   -708.75622955 </i>
    <i name="e_0_energy">   -708.60883394 </i>
   </energy>
  </scstep>
  <scstep>
   <time name="diag">    5.55    5.57</time>
   <time name="diis">   11.46   11.50</time>
   <time name="orth">    1.82    1.82</time>
   <time name="total">   20.07   20.14</time>
   <energy>
    <i name="e_fr_energy">   -708.51928195 </i>
    <i name="e_wo_entrp">   -708.73370801 </i>
    <i name="e_0_energy">   -708.59075730 </i>
   </energy>
  </scstep>
  <scstep>
   <time name="diag">    5.55    5.56</time>
   <time name="diis">   11.10   11.15</time>
   <time name="orth">    1.82    1.82</time>
   <time name="total">   19.70   19.77</time>
   <energy>
    <i name="e_fr_energy">   -708.49470949 </i>
    <i name="e_wo_entrp">   -708.71027469 </i>
    <i name="e_0_energy">   -708.56656456 </i>
   </energy>
  </scstep>
  <scstep>
   <time name="diag">    5.56    5.57</time>
   <time name="diis">   11.22   11.26</time>
   <time name="orth">    1.81    1.82</time>
   <time name="total">   19.83   19.89</time>
   <energy>
    <i name="e_fr_energy">   -708.47285018 </i>
    <i name="e_wo_entrp">   -708.69425124 </i>
    <i name="e_0_energy">   -708.54665053 </i>
   </energy>
  </scstep>
  <scstep>
   <time name="diag">    5.56    5.58</time>
   <time name="diis">   11.38   11.42</time>
   <time name="orth">    1.82    1.83</time>
   <time name="total">   20.00   20.07</time>
   <energy>
    <i name="e_fr_energy">   -708.46887474 </i>
    <i name="e_wo_entrp">   -708.69060762 </i>
    <i name="e_0_energy">   -708.54278570 </i>
   </energy>
  </scstep>
  <scstep>
   <time name="diag">    5.55    5.57</time>
   <time name="diis">   11.35   11.39</time>
   <time name="orth">    1.81    1.82</time>
   <time name="total">   19.94   20.01</time>
   <energy>
    <i name="e_fr_energy">   -708.46203923 </i>
    <i name="e_wo_entrp">   -708.68198339 </i>
    <i name="e_0_energy">   -708.53535395 </i>
   </energy>
  </scstep>
  <scstep>
   <time name="diag">    5.54    5.56</time>
   <time name="diis">   11.26   11.30</time>
   <time name="orth">    1.82    1.82</time>
   <time name="total">   19.85   19.91</time>
   <energy>
    <i name="e_fr_energy">   -708.45718533 </i>
    <i name="e_wo_entrp">   -708.67792684 </i>
    <i name="e_0_energy">   -708.53076583 </i>
   </energy>
  </scstep>
  <scstep>
   <time name="diag">    5.56    5.57</time>
   <time name="diis">   11.65   11.69</time>
   <time name="orth">    1.82    1.82</time>
   <time name="total">   20.25   20.32</time>
   <energy>
    <i name="e_fr_energy">   -708.45592233 </i>
    <i name="e_wo_entrp">   -708.67739585 </i>
    <i name="e_0_energy">   -708.52974684 </i>
   </energy>
  </scstep>
  <scstep>
   <time name="diag">    5.64    5.65</time>
   <time name="diis">    9.61    9.64</time>
   <time name="orth">    1.83    1.83</time>
   <time name="total">   18.30   18.36</time>
   <energy>
    <i name="e_fr_energy">   -708.45438648 </i>
    <i name="e_wo_entrp">   -708.67588208 </i>
    <i name="e_0_energy">   -708.52821835 </i>
   </energy>
  </scstep>
  <scstep>
   <time name="diag">    5.54    5.55</time>
   <time name="diis">    8.48    8.51</time>
   <time name="orth">    1.82    1.82</time>
   <time name="total">   17.07   17.12</time>
   <energy>
    <i name="e_fr_energy">   -708.45374320 </i>
    <i name="e_wo_entrp">   -708.67496014 </i>
    <i name="e_0_energy">   -708.52748218 </i>
   </energy>
  </scstep>
  <scstep>
   <time name="diag">    5.56    5.57</time>
   <time name="diis">    9.19    9.23</time>
   <time name="orth">    1.80    1.81</time>
   <time name="total">   17.79   17.84</time>
   <energy>
    <i name="e_fr_energy">   -708.45226645 </i>
    <i name="e_wo_entrp">   -708.67319894 </i>
    <i name="e_0_energy">   -708.52591061 </i>
   </energy>
  </scstep>
  <scstep>
   <time name="diag">    5.56    5.57</time>
   <time name="diis">    8.29    8.32</time>
   <time name="orth">    1.81    1.81</time>
   <time name="total">   16.89   16.94</time>
   <energy>
    <i name="e_fr_energy">   -708.45176572 </i>
    <i name="e_wo_entrp">   -708.67219594 </i>
    <i name="e_0_energy">   -708.52524246 </i>
   </energy>
  </scstep>
  <scstep>
   <time name="diag">    5.61    5.62</time>
   <time name="diis">    8.10    8.13</time>
   <time name="orth">    1.82    1.82</time>
   <time name="total">   16.76   16.81</time>
   <energy>
    <i name="e_fr_energy">   -708.45150551 </i>
    <i name="e_wo_entrp">   -708.67128452 </i>
    <i name="e_0_energy">   -708.52476518 </i>
   </energy>
  </scstep>
  <scstep>
   <time name="diag">    5.63    5.64</time>
   <time name="diis">    7.52    7.55</time>
   <time name="orth">    1.82    1.82</time>
   <time name="total">   16.20   16.25</time>
   <energy>
    <i name="e_fr_energy">   -708.45165545 </i>
    <i name="e_wo_entrp">   -708.67114688 </i>
    <i name="e_0_energy">   -708.52481926 </i>
   </energy>
  </scstep>
  <scstep>
   <time name="diag">    5.57    5.59</time>
   <time name="diis">    6.79    6.81</time>
   <time name="orth">    1.81    1.82</time>
   <time name="total">   15.40   15.45</time>
   <energy>
    <i name="e_fr_energy">   -708.45207913 </i>
    <i name="e_wo_entrp">   -708.67155696 </i>
    <i name="e_0_energy">   -708.52523840 </i>
   </energy>
  </scstep>
  <scstep>
   <time name="diag">    5.54    5.56</time>
   <time name="diis">    6.44    6.47</time>
   <time name="orth">    1.83    1.83</time>
   <time name="total">   15.04   15.09</time>
   <energy>
    <i name="e_fr_energy">   -708.45270149 </i>
    <i name="e_wo_entrp">   -708.67211495 </i>
    <i name="e_0_energy">   -708.52583931 </i>
   </energy>
  </scstep>
  <scstep>
   <time name="diag">    5.55    5.57</time>
   <time name="diis">    6.27    6.29</time>
   <time name="orth">    1.82    1.82</time>
   <time name="total">   14.87   14.92</time>
   <energy>
    <i name="e_fr_energy">   -708.45328733 </i>
    <i name="e_wo_entrp">   -708.67275826 </i>
    <i name="e_0_energy">   -708.52644430 </i>
   </energy>
  </scstep>
  <scstep>
   <time name="diag">    5.55    5.56</time>
   <time name="diis">    6.38    6.40</time>
   <time name="orth">    1.81    1.82</time>
   <time name="total">   14.97   15.02</time>
   <energy>
    <i name="e_fr_energy">   -708.45394745 </i>
    <i name="e_wo_entrp">   -708.67352579 </i>
    <i name="e_0_energy">   -708.52714023 </i>
   </energy>
  </scstep>
  <scstep>
   <time name="diag">    5.55    5.57</time>
   <time name="diis">    6.57    6.59</time>
   <time name="orth">    1.81    1.82</time>
   <time name="total">   15.16   15.21</time>
   <energy>
    <i name="e_fr_energy">   -708.45526412 </i>
    <i name="e_wo_entrp">   -708.67485367 </i>
    <i name="e_0_energy">   -708.52846063 </i>
   </energy>
  </scstep>
  <scstep>
   <time name="diag">    5.53    5.55</time>
   <time name="diis">    6.09    6.11</time>
   <time name="orth">    1.88    1.88</time>
   <time name="total">   14.76   14.81</time>
   <energy>
    <i name="e_fr_energy">   -708.45575057 </i>
    <i name="e_wo_entrp">   -708.67535793 </i>
    <i name="e_0_energy">   -708.52895302 </i>
   </energy>
  </scstep>
  <scstep>
   <time name="diag">    5.81    5.85</time>
   <time name="diis">    5.55    5.57</time>
   <time name="orth">    1.82    1.82</time>
   <time name="total">   14.40   14.46</time>
   <energy>
    <i name="e_fr_energy">   -708.45621823 </i>
    <i name="e_wo_entrp">   -708.67585782 </i>
    <i name="e_0_energy">   -708.52943143 </i>
   </energy>
  </scstep>
  <scstep>
   <time name="diag">    5.54    5.56</time>
   <time name="diis">    4.74    4.76</time>
   <time name="orth">    1.83    1.83</time>
   <time name="total">   13.33   13.38</time>
   <energy>
    <i name="e_fr_energy">   -708.45638159 </i>
    <i name="e_wo_entrp">   -708.67602377 </i>
    <i name="e_0_energy">   -708.52959565 </i>
   </energy>
  </scstep>
  <scstep>
   <time name="diag">    5.56    5.57</time>
   <time name="diis">    4.79    4.81</time>
   <time name="orth">    1.82    1.82</time>
   <time name="total">   13.39   13.43</time>
   <energy>
    <i name="e_fr_energy">   -708.45656104 </i>
    <i name="e_wo_entrp">   -708.67622647 </i>
    <i name="e_0_energy">   -708.52978285 </i>
   </energy>
  </scstep>
  <scstep>
   <time name="diag">    5.55    5.56</time>
   <time name="diis">    5.16    5.18</time>
   <time name="orth">    1.81    1.82</time>
   <time name="total">   13.74   13.79</time>
   <energy>
    <i name="e_fr_energy">   -708.45682944 </i>
    <i name="e_wo_entrp">   -708.67657257 </i>
    <i name="e_0_energy">   -708.53007715 </i>
   </energy>
  </scstep>
  <scstep>
   <time name="diag">    5.55    5.56</time>
   <time name="diis">    4.45    4.46</time>
   <time name="orth">    1.82    1.82</time>
   <time name="total">   13.04   13.08</time>
   <energy>
    <i name="e_fr_energy">   -708.45695792 </i>
    <i name="e_wo_entrp">   -708.67675233 </i>
    <i name="e_0_energy">   -708.53022272 </i>
   </energy>
  </scstep>
  <scstep>
   <time name="diag">    5.55    5.56</time>
   <time name="diis">    4.47    4.49</time>
   <time name="orth">    1.81    1.81</time>
   <time name="total">   13.06   13.10</time>
   <energy>
    <i name="e_fr_energy">   -708.45706886 </i>
    <i name="e_wo_entrp">   -708.67689363 </i>
    <i name="e_0_energy">   -708.53034378 </i>
   </energy>
  </scstep>
  <scstep>
   <time name="diag">    5.54    5.56</time>
   <time name="diis">    4.20    4.22</time>
   <time name="orth">    1.82    1.82</time>
   <time name="total">   11.72   11.76</time>
   <energy>
    <i name="alphaZ">   1779.96973948 </i>
    <i name="ewald"> 642263.68134072 </i>
    <i name="hartreedc">-715178.61963081 </i>
    <i name="XCdc">  -1946.65162456 </i>
    <i name="pawpsdc">  90572.96440591 </i>
    <i name="pawaedc"> -86126.02737636 </i>
    <i name="eentropy">      0.21982918 </i>
    <i name="bandstr">  -1057.85127977 </i>
    <i name="atom">  68983.85746649 </i>
    <i name="e_fr_energy">   -708.45712973 </i>
    <i name="e_wo_entrp">   -708.67695891 </i>
    <i name="e_0_energy">   -708.53040612 </i>
   </energy>
  </scstep>
  <structure>
   <crystal>
    <varray name="basis" >
     <v>      14.16366987       0.00000000       0.00000000 </v>
     <v>      -6.07014423       8.81971509       0.00000000 </v>
     <v>       0.00000000       0.00000000      31.28959415 </v>
    </varray>
    <i name="volume">   3908.68148614 </i>
    <varray name="rec_basis" >
     <v>       0.07060317       0.04859243       0.00000000 </v>
     <v>       0.00000000       0.11338235       0.00000000 </v>
     <v>       0.00000000       0.00000000       0.03195951 </v>
    </varray>
   </crystal>
   <varray name="positions" >
    <v>       0.00000000       0.00000000       0.00000000 </v>
    <v>       0.50000000       0.75000000       0.00000000 </v>
    <v>       0.50000000       0.50000000       0.00000000 </v>
    <v>       0.50000000       0.25000000       0.00000000 </v>
    <v>       0.50000000       0.00000000       0.00000000 </v>
    <v>       0.00000000       0.25000000       0.00000000 </v>
    <v>       0.00000000       0.50000000       0.00000000 </v>
    <v>       0.00000000       0.75000000       0.00000000 </v>
    <v>       0.31578947       0.73684211       0.02775460 </v>
    <v>       0.31578947       0.48684211       0.02775460 </v>
    <v>       0.31578947       0.23684211       0.02775460 </v>
    <v>       0.81578947       0.98684211       0.02775460 </v>
    <v>       0.81578947       0.73684211       0.02775460 </v>
    <v>       0.81578947       0.48684211       0.02775460 </v>
    <v>       0.31578947       0.98684211       0.02775460 </v>
    <v>       0.81578947       0.23684211       0.02775460 </v>
    <v>       0.13157895       0.22368421       0.05550921 </v>
    <v>       0.63157895       0.97368421       0.05550921 </v>
    <v>       0.63157895       0.72368421       0.05550921 </v>
    <v>       0.63157895       0.47368421       0.05550921 </v>
    <v>       0.63157895       0.22368421       0.05550921 </v>
    <v>       0.13157895       0.47368421       0.05550921 </v>
    <v>       0.13157895       0.72368421       0.05550921 </v>
    <v>       0.13157895       0.97368421       0.05550921 </v>
    <v>       0.44736842       0.96052632       0.08326381 </v>
    <v>       0.44736842       0.71052632       0.08326381 </v>
    <v>       0.44736842       0.46052632       0.08326381 </v>
    <v>       0.44736842       0.21052632       0.08326381 </v>
    <v>       0.94736842       0.96052632       0.08326381 </v>
    <v>       0.94736842       0.71052632       0.08326381 </v>
    <v>       0.94736842       0.46052632       0.08326381 </v>
    <v>       0.94736842       0.21052632       0.08326381 </v>
    <v>       0.26315789       0.44736842       0.11101842 </v>
    <v>       0.26315789       0.19736842       0.11101842 </v>
    <v>       0.76315789       0.94736842       0.11101842 </v>
    <v>       0.76315789       0.69736842       0.11101842 </v>
    <v>       0.76315789       0.44736842       0.11101842 </v>
    <v>       0.76315789       0.19736842       0.11101842 </v>
    <v>       0.26315789       0.69736842       0.11101842 </v>
    <v>       0.26315789       0.94736842       0.11101842 </v>
    <v>       0.07894737       0.18421053       0.13877302 </v>
    <v>       0.57894737       0.93421053       0.13877302 </v>
    <v>       0.57894737       0.68421053       0.13877302 </v>
    <v>       0.57894737       0.43421053       0.13877302 </v>
    <v>       0.57894737       0.18421053       0.13877302 </v>
    <v>       0.07894737       0.43421053       0.13877302 </v>
    <v>       0.07894737       0.68421053       0.13877302 </v>
    <v>       0.07894737       0.93421053       0.13877302 </v>
    <v>       0.39473684       0.92105263       0.16652763 </v>
    <v>       0.39473684       0.67105263       0.16652763 </v>
    <v>       0.39473684       0.42105263       0.16652763 </v>
    <v>       0.39473684       0.17105263       0.16652763 </v>
    <v>       0.89473684       0.92105263       0.16652763 </v>
    <v>       0.89473684       0.67105263       0.16652763 </v>
    <v>       0.89473684       0.42105263       0.16652763 </v>
    <v>       0.89473684       0.17105263       0.16652763 </v>
    <v>       0.21052632       0.40789474       0.19428223 </v>
    <v>       0.21052632       0.15789474       0.19428223 </v>
    <v>       0.71052632       0.90789474       0.19428223 </v>
    <v>       0.71052632       0.65789474       0.19428223 </v>
    <v>       0.71052632       0.40789474       0.19428223 </v>
    <v>       0.71052632       0.15789474       0.19428223 </v>
    <v>       0.21052632       0.65789474       0.19428223 </v>
    <v>       0.21052632       0.90789474       0.19428223 </v>
    <v>       0.52631579       0.89473684       0.22203684 </v>
    <v>       0.52631579       0.64473684       0.22203684 </v>
    <v>       0.52631579       0.39473684       0.22203684 </v>
    <v>       0.52631579       0.14473684       0.22203684 </v>
    <v>       0.02631579       0.14473684       0.22203684 </v>
    <v>       0.02631579       0.39473684       0.22203684 </v>
    <v>       0.02631579       0.64473684       0.22203684 </v>
    <v>       0.02631579       0.89473684       0.22203684 </v>
    <v>       0.34210526       0.63157895       0.24979144 </v>
    <v>       0.34210526       0.38157895       0.24979144 </v>
    <v>       0.34210526       0.13157895       0.24979144 </v>
    <v>       0.84210526       0.88157895       0.24979144 </v>
    <v>       0.84210526       0.63157895       0.24979144 </v>
    <v>       0.84210526       0.38157895       0.24979144 </v>
    <v>       0.34210526       0.88157895       0.24979144 </v>
    <v>       0.84210526       0.13157895       0.24979144 </v>
    <v>       0.15789474       0.36842105       0.27754605 </v>
    <v>       0.15789474       0.11842105       0.27754605 </v>
    <v>       0.65789474       0.86842105       0.27754605 </v>
    <v>       0.65789474       0.61842105       0.27754605 </v>
    <v>       0.65789474       0.36842105       0.27754605 </v>
    <v>       0.65789474       0.11842105       0.27754605 </v>
    <v>       0.15789474       0.61842105       0.27754605 </v>
    <v>       0.15789474       0.86842105       0.27754605 </v>
    <v>       0.47368421       0.85526316       0.30530065 </v>
    <v>       0.47368421       0.60526316       0.30530065 </v>
    <v>       0.47368421       0.35526316       0.30530065 </v>
    <v>       0.47368421       0.10526316       0.30530065 </v>
    <v>       0.97368421       0.85526316       0.30530065 </v>
    <v>       0.97368421       0.60526316       0.30530065 </v>
    <v>       0.97368421       0.35526316       0.30530065 </v>
    <v>       0.97368421       0.10526316       0.30530065 </v>
    <v>       0.28947368       0.59210526       0.33305526 </v>
    <v>       0.28947368       0.34210526       0.33305526 </v>
    <v>       0.28947368       0.09210526       0.33305526 </v>
    <v>       0.78947368       0.84210526       0.33305526 </v>
    <v>       0.78947368       0.59210526       0.33305526 </v>
    <v>       0.78947368       0.34210526       0.33305526 </v>
    <v>       0.28947368       0.84210526       0.33305526 </v>
    <v>       0.78947368       0.09210526       0.33305526 </v>
    <v>       0.10526316       0.07894737       0.36080986 </v>
    <v>       0.60526316       0.82894737       0.36080986 </v>
    <v>       0.60526316       0.57894737       0.36080986 </v>
    <v>       0.60526316       0.32894737       0.36080986 </v>
    <v>       0.60526316       0.07894737       0.36080986 </v>
    <v>       0.10526316       0.32894737       0.36080986 </v>
    <v>       0.10526316       0.57894737       0.36080986 </v>
    <v>       0.10526316       0.82894737       0.36080986 </v>
   </varray>
  </structure>
  <varray name="forces" >
   <v>      -0.17516796      -0.10306396       1.85973399 </v>
   <v>      -0.14779123      -0.12189927       1.88881336 </v>
   <v>      -0.17517416      -0.10295985       1.85955897 </v>
   <v>      -0.14770250      -0.12182820       1.88842564 </v>
   <v>      -0.17509790      -0.10307119       1.85953379 </v>
   <v>      -0.14772924      -0.12188383       1.88863286 </v>
   <v>      -0.17511380      -0.10297280       1.85942938 </v>
   <v>      -0.14778056      -0.12186082       1.88871437 </v>
   <v>       0.16284654      -0.28998596       1.15475549 </v>
   <v>       0.11844463       0.21989258       1.07079816 </v>
   <v>       0.16270570      -0.28999067       1.15468128 </v>
   <v>       0.11844206       0.21977627       1.07073557 </v>
   <v>       0.16282382      -0.28993908       1.15478872 </v>
   <v>       0.11837515       0.21985079       1.07072090 </v>
   <v>       0.11837265       0.21973071       1.07067253 </v>
   <v>       0.16273111      -0.29004132       1.15464241 </v>
   <v>       0.21092492       0.05997341       0.29735962 </v>
   <v>       0.05427640       0.21285574       0.25383834 </v>
   <v>       0.21091246       0.05997976       0.29734384 </v>
   <v>       0.05427210       0.21294742       0.25388230 </v>
   <v>       0.21094296       0.05998644       0.29736960 </v>
   <v>       0.05432016       0.21293110       0.25388917 </v>
   <v>       0.21093321       0.06000342       0.29736338 </v>
   <v>       0.05424593       0.21287613       0.25385357 </v>
   <v>       0.04160677      -0.03165160      -0.50480167 </v>
   <v>       0.07818751       0.15046928      -0.39531985 </v>
   <v>       0.04158922      -0.03157717      -0.50481299 </v>
   <v>       0.07819490       0.15049002      -0.39514672 </v>
   <v>       0.04159897      -0.03165563      -0.50485181 </v>
   <v>       0.07815430       0.15048706      -0.39526885 </v>
   <v>       0.04159717      -0.03158211      -0.50474472 </v>
   <v>       0.07822146       0.15047277      -0.39519431 </v>
   <v>      -0.18968411       0.03990176       0.37569335 </v>
   <v>      -0.04064258      -0.16369247       0.29503276 </v>
   <v>      -0.18967254       0.03988408       0.37570710 </v>
   <v>      -0.04062314      -0.16366798       0.29498678 </v>
   <v>      -0.18968960       0.03992370       0.37570794 </v>
   <v>      -0.04062891      -0.16368687       0.29504346 </v>
   <v>      -0.04063177      -0.16368561       0.29500567 </v>
   <v>      -0.18970530       0.03989723       0.37571922 </v>
   <v>      -0.14139373      -0.21944177      -0.47650625 </v>
   <v>      -0.17422668       0.02185367       0.06207735 </v>
   <v>      -0.14138485      -0.21943089      -0.47656147 </v>
   <v>      -0.17423742       0.02189743       0.06210377 </v>
   <v>      -0.14140035      -0.21941540      -0.47651284 </v>
   <v>      -0.17422783       0.02188511       0.06211100 </v>
   <v>      -0.14141050      -0.21941871      -0.47651029 </v>
   <v>      -0.17425026       0.02185666       0.06211925 </v>
   <v>       0.06514383      -0.24570842       0.14450289 </v>
   <v>      -0.18058067       0.03269867       0.22139737 </v>
   <v>       0.06514270      -0.24570424       0.14448389 </v>
   <v>      -0.18060225       0.03269700       0.22142091 </v>
   <v>       0.06516534      -0.24570189       0.14449651 </v>
   <v>      -0.18057218       0.03271554       0.22142319 </v>
   <v>       0.06516304      -0.24569301       0.14450864 </v>
   <v>      -0.18057557       0.03270441       0.22141061 </v>
   <v>       0.04686422       0.24914070      -0.25512043 </v>
   <v>       0.08649523       0.05946598      -0.04722926 </v>
   <v>       0.04689997       0.24916036      -0.25514741 </v>
   <v>       0.08653967       0.05949262      -0.04726627 </v>
   <v>       0.04689442       0.24916170      -0.25512753 </v>
   <v>       0.08651917       0.05948937      -0.04724229 </v>
   <v>       0.08649518       0.05945897      -0.04722362 </v>
   <v>       0.04685124       0.24914189      -0.25509975 </v>
   <v>       0.46258454       0.31296253       0.00802939 </v>
   <v>       0.18564637      -0.29287514      -0.05244371 </v>
   <v>       0.46259687       0.31292495       0.00803224 </v>
   <v>       0.18562426      -0.29285814      -0.05237934 </v>
   <v>       0.18564840      -0.29288390      -0.05240257 </v>
   <v>       0.46259260       0.31294626       0.00802287 </v>
   <v>       0.18563071      -0.29284799      -0.05239734 </v>
   <v>       0.46260516       0.31294857       0.00804819 </v>
   <v>       0.10652941       0.23908324       0.21165024 </v>
   <v>       0.14871016       0.24024393       0.06740991 </v>
   <v>       0.10654578       0.23907676       0.21172879 </v>
   <v>       0.14877005       0.24030645       0.06742165 </v>
   <v>       0.10659373       0.23912818       0.21169395 </v>
   <v>       0.14872500       0.24031040       0.06740516 </v>
   <v>       0.14867323       0.24029538       0.06744782 </v>
[...]
    <i name="e_wo_entrp">   -708.52286787 </i>
    <i name="e_0_energy">   -708.36652648 </i>
   </energy>
  </scstep>
  <scstep>
   <time name="diag">    5.55    5.57</time>
   <time name="diis">    6.53    6.55</time>
   <time name="orth">    1.82    1.82</time>
   <time name="total">   15.14   15.18</time>
   <energy>
    <i name="e_fr_energy">   -708.28825034 </i>
    <i name="e_wo_entrp">   -708.52300752 </i>
    <i name="e_0_energy">   -708.36650273 </i>
   </energy>
  </scstep>
  <scstep>
   <time name="diag">    5.54    5.56</time>
   <time name="diis">    6.40    6.43</time>
   <time name="orth">    1.84    1.84</time>
   <time name="total">   15.02   15.07</time>
   <energy>
    <i name="e_fr_energy">   -708.28813286 </i>
    <i name="e_wo_entrp">   -708.52289924 </i>
    <i name="e_0_energy">   -708.36638832 </i>
   </energy>
  </scstep>
  <scstep>
   <time name="diag">    5.62    5.63</time>
   <time name="diis">    6.25    6.27</time>
   <time name="orth">    1.82    1.82</time>
   <time name="total">   13.85   13.89</time>
   <energy>
    <i name="alphaZ">   1779.96973948 </i>
    <i name="ewald"> 647746.95307038 </i>
    <i name="hartreedc">-720639.69272503 </i>
    <i name="XCdc">  -1943.05419717 </i>
    <i name="pawpsdc">  91180.73888067 </i>
    <i name="pawaedc"> -86740.00353050 </i>
    <i name="eentropy">      0.23479360 </i>
    <i name="bandstr">  -1077.29160708 </i>
    <i name="atom">  68983.85746649 </i>
    <i name="e_fr_energy">   -708.28810917 </i>
    <i name="e_wo_entrp">   -708.52290277 </i>
    <i name="e_0_energy">   -708.36637370 </i>
   </energy>
  </scstep>
  <structure>
   <crystal>
    <varray name="basis" >
     <v>      14.16366987       0.00000000       0.00000000 </v>
     <v>      -6.07014423       8.81971509       0.00000000 </v>
     <v>       0.00000000       0.00000000      31.28959415 </v>
    </varray>
    <i name="volume">   3908.68148614 </i>
    <varray name="rec_basis" >
     <v>       0.07060317       0.04859243       0.00000000 </v>
     <v>       0.00000000       0.11338235       0.00000000 </v>
     <v>       0.00000000       0.00000000       0.03195951 </v>
    </varray>
   </crystal>
   <varray name="positions" >
    <v>       0.00000000       0.00000000       0.00000000 </v>
    <v>       0.50000000       0.75000000       0.00000000 </v>
    <v>       0.50000000       0.50000000       0.00000000 </v>
    <v>       0.50000000       0.25000000       0.00000000 </v>
    <v>       0.50000000       0.00000000       0.00000000 </v>
    <v>       0.00000000       0.25000000       0.00000000 </v>
    <v>       0.00000000       0.50000000       0.00000000 </v>
    <v>       0.00000000       0.75000000       0.00000000 </v>
    <v>       0.31578947       0.73684211       0.02775460 </v>
    <v>       0.31578947       0.48684211       0.02775460 </v>
    <v>       0.31578947       0.23684211       0.02775460 </v>
    <v>       0.81578947       0.98684211       0.02775460 </v>
    <v>       0.81578947       0.73684211       0.02775460 </v>
    <v>       0.81578947       0.48684211       0.02775460 </v>
    <v>       0.31578947       0.98684211       0.02775460 </v>
    <v>       0.81578947       0.23684211       0.02775460 </v>
    <v>       0.13157895       0.22368421       0.05550921 </v>
    <v>       0.63157895       0.97368421       0.05550921 </v>
    <v>       0.63157895       0.72368421       0.05550921 </v>
    <v>       0.63157895       0.47368421       0.05550921 </v>
    <v>       0.63157895       0.22368421       0.05550921 </v>
    <v>       0.13157895       0.47368421       0.05550921 </v>
    <v>       0.13157895       0.72368421       0.05550921 </v>
    <v>       0.13157895       0.97368421       0.05550921 </v>
    <v>       0.44736842       0.96052632       0.08326381 </v>
    <v>       0.44736842       0.71052632       0.08326381 </v>
    <v>       0.44736842       0.46052632       0.08326381 </v>
    <v>       0.44736842       0.21052632       0.08326381 </v>
    <v>       0.94736842       0.96052632       0.08326381 </v>
    <v>       0.94736842       0.71052632       0.08326381 </v>
    <v>       0.94736842       0.46052632       0.08326381 </v>
    <v>       0.94736842       0.21052632       0.08326381 </v>
    <v>       0.26315789       0.44736842       0.11101842 </v>
    <v>       0.26315789       0.19736842       0.11101842 </v>
    <v>       0.76315789       0.94736842       0.11101842 </v>
    <v>       0.76315789       0.69736842       0.11101842 </v>
    <v>       0.76315789       0.44736842       0.11101842 </v>
    <v>       0.76315789       0.19736842       0.11101842 </v>
    <v>       0.26315789       0.69736842       0.11101842 </v>
    <v>       0.26315789       0.94736842       0.11101842 </v>
    <v>       0.07894737       0.18421053       0.13877302 </v>
    <v>       0.57894737       0.93421053       0.13877302 </v>
    <v>       0.57894737       0.68421053       0.13877302 </v>
    <v>       0.57894737       0.43421053       0.13877302 </v>
    <v>       0.57894737       0.18421053       0.13877302 </v>
    <v>       0.07894737       0.43421053       0.13877302 </v>
    <v>       0.07894737       0.68421053       0.13877302 </v>
    <v>       0.07894737       0.93421053       0.13877302 </v>
    <v>       0.39473684       0.92105263       0.16652763 </v>
    <v>       0.39473684       0.67105263       0.16652763 </v>
    <v>       0.39473684       0.42105263       0.16652763 </v>
    <v>       0.39473684       0.17105263       0.16652763 </v>
    <v>       0.89473684       0.92105263       0.16652763 </v>
    <v>       0.89473684       0.67105263       0.16652763 </v>
    <v>       0.89473684       0.42105263       0.16652763 </v>
    <v>       0.89473684       0.17105263       0.16652763 </v>
    <v>       0.21052632       0.40789474       0.19428223 </v>
    <v>       0.21052632       0.15789474       0.19428223 </v>
    <v>       0.71052632       0.90789474       0.19428223 </v>
    <v>       0.71052632       0.65789474       0.19428223 </v>
    <v>       0.71052632       0.40789474       0.19428223 </v>
    <v>       0.71052632       0.15789474       0.19428223 </v>
    <v>       0.21052632       0.65789474       0.19428223 </v>
    <v>       0.21052632       0.90789474       0.19428223 </v>
    <v>       0.52631579       0.89473684       0.22203684 </v>
    <v>       0.52631579       0.64473684       0.22203684 </v>
    <v>       0.52631579       0.39473684       0.22203684 </v>
    <v>       0.52631579       0.14473684       0.22203684 </v>
    <v>       0.02631579       0.14473684       0.22203684 </v>
    <v>       0.02631579       0.39473684       0.22203684 </v>
    <v>       0.02631579       0.64473684       0.22203684 </v>
    <v>       0.02631579       0.89473684       0.22203684 </v>
    <v>       0.34210526       0.63157895       0.24979144 </v>
    <v>       0.34210526       0.38157895       0.24979144 </v>
    <v>       0.34210526       0.13157895       0.24979144 </v>
    <v>       0.84210526       0.88157895       0.24979144 </v>
    <v>       0.84210526       0.63157895       0.24979144 </v>
    <v>       0.84210526       0.38157895       0.24979144 </v>
    <v>       0.34210526       0.88157895       0.24979144 </v>
    <v>       0.84210526       0.13157895       0.24979144 </v>
    <v>       0.15631050       0.36614363       0.27717795 </v>
    <v>       0.15712793       0.11859490       0.27703347 </v>
    <v>       0.65631069       0.86614386       0.27717841 </v>
    <v>       0.65712837       0.61859532       0.27703397 </v>
    <v>       0.65630988       0.36614271       0.27717683 </v>
    <v>       0.65712878       0.11859716       0.27703376 </v>
    <v>       0.15712859       0.61859695       0.27703339 </v>
    <v>       0.15630964       0.86614260       0.27717637 </v>
    <v>       0.47273729       0.85565720       0.30526570 </v>
    <v>       0.47191273       0.60348656       0.30517071 </v>
    <v>       0.47273670       0.35565520       0.30526574 </v>
    <v>       0.47191197       0.10348692       0.30517069 </v>
    <v>       0.97273697       0.85565548       0.30526565 </v>
    <v>       0.97191208       0.60348703       0.30517062 </v>
    <v>       0.97273738       0.35565721       0.30526566 </v>
    <v>       0.97191283       0.10348664       0.30517066 </v>
    <v>       0.28830768       0.59092257       0.33052698 </v>
    <v>       0.28875707       0.34108292       0.33070256 </v>
    <v>       0.28831146       0.09092449       0.33052896 </v>
    <v>       0.78875592       0.84108203       0.33070204 </v>
    <v>       0.78831024       0.59092363       0.33052838 </v>
    <v>       0.78875847       0.34108465       0.33070349 </v>
    <v>       0.28875944       0.84108545       0.33070389 </v>
    <v>       0.78830690       0.09092201       0.33052662 </v>
    <v>       0.10651860       0.08084107       0.35704160 </v>
    <v>       0.60665860       0.83009213       0.35710895 </v>
    <v>       0.60651926       0.58084156       0.35704068 </v>
    <v>       0.60665615       0.33009078       0.35711366 </v>
    <v>       0.60651888       0.08084275       0.35704087 </v>
    <v>       0.10665816       0.33009162       0.35710964 </v>
    <v>       0.10651849       0.58084241       0.35704141 </v>
    <v>       0.10665556       0.83009050       0.35711462 </v>
   </varray>
  </structure>
  <varray name="forces" >
   <v>      -0.18883550      -0.10362927       1.82544934 </v>
   <v>      -0.16286634      -0.12237322       1.85577369 </v>
   <v>      -0.18909666      -0.10381145       1.82674640 </v>
   <v>      -0.16275172      -0.12229870       1.85520602 </v>
   <v>      -0.18906222      -0.10378677       1.82664440 </v>
   <v>      -0.16258366      -0.12216176       1.85432985 </v>
   <v>      -0.18881403      -0.10360271       1.82535748 </v>
   <v>      -0.16252782      -0.12214184       1.85407169 </v>
   <v>       0.15452654      -0.28431016       1.12787331 </v>
   <v>       0.11085168       0.22661029       1.04586131 </v>
   <v>       0.15444206      -0.28437448       1.12771156 </v>
   <v>       0.11043031       0.22630131       1.04535003 </v>
   <v>       0.15407815      -0.28463348       1.12727911 </v>
   <v>       0.11033101       0.22629824       1.04518758 </v>
   <v>       0.11069893       0.22655216       1.04562711 </v>
   <v>       0.15408745      -0.28460546       1.12734004 </v>
   <v>       0.19741291       0.06072095       0.27733157 </v>
   <v>       0.04030198       0.21443327       0.23422012 </v>
   <v>       0.19741818       0.06073443       0.27720383 </v>
   <v>       0.04031799       0.21439435       0.23419757 </v>
   <v>       0.19742401       0.06078424       0.27716584 </v>
   <v>       0.04029610       0.21441257       0.23434394 </v>
   <v>       0.19740527       0.06077009       0.27727600 </v>
   <v>       0.04031397       0.21437235       0.23430610 </v>
   <v>       0.03197560      -0.02835818      -0.53366152 </v>
   <v>       0.06876518       0.15402254      -0.42614299 </v>
   <v>       0.03199612      -0.02838200      -0.53369235 </v>
   <v>       0.06877116       0.15404115      -0.42603370 </v>
   <v>       0.03209992      -0.02830292      -0.53314470 </v>
   <v>       0.06885861       0.15410729      -0.42555574 </v>
   <v>       0.03208302      -0.02826641      -0.53311804 </v>
   <v>       0.06889100       0.15410102      -0.42555072 </v>
   <v>      -0.19472361       0.04850823       0.30871387 </v>
   <v>      -0.04245816      -0.15558787       0.22867224 </v>
   <v>      -0.19471835       0.04851562       0.30861980 </v>
   <v>      -0.04245265      -0.15556298       0.22856396 </v>
   <v>      -0.19469554       0.04854065       0.30859259 </v>
   <v>      -0.04247669      -0.15557692       0.22863248 </v>
   <v>      -0.04248457      -0.15558160       0.22870714 </v>
   <v>      -0.19470214       0.04853485       0.30869319 </v>
   <v>      -0.15263174      -0.21817592      -0.48340320 </v>
   <v>      -0.18440313       0.02186242       0.05636397 </v>
   <v>      -0.15264205      -0.21818467      -0.48324383 </v>
   <v>      -0.18437023       0.02185745       0.05641260 </v>
   <v>      -0.15266297      -0.21819196      -0.48323409 </v>
   <v>      -0.18439535       0.02187725       0.05620578 </v>
   <v>      -0.15265371      -0.21818298      -0.48340120 </v>
   <v>      -0.18436789       0.02185173       0.05624562 </v>
   <v>       0.03258807      -0.25938903       0.12453629 </v>
   <v>      -0.21492390       0.01770355       0.20519002 </v>
   <v>       0.03262589      -0.25936495       0.12455453 </v>
   <v>      -0.21490306       0.01766056       0.20517339 </v>
   <v>       0.03271173      -0.25932843       0.12461993 </v>
   <v>      -0.21480673       0.01771643       0.20525397 </v>
   <v>       0.03268752      -0.25933467       0.12461105 </v>
   <v>      -0.21482955       0.01775691       0.20524915 </v>
   <v>       0.02019832       0.24146071      -0.31865767 </v>
   <v>       0.06254604       0.05579680      -0.12906563 </v>
   <v>       0.02030743       0.24151644      -0.31867713 </v>
   <v>       0.06266225       0.05585375      -0.12907249 </v>
   <v>       0.02035580       0.24149506      -0.31894354 </v>
   <v>       0.06267676       0.05576794      -0.12908771 </v>
   <v>       0.06256686       0.05570997      -0.12908124 </v>
   <v>       0.02023885       0.24142292      -0.31893428 </v>
   <v>       0.40208344       0.28358358      -0.14124031 </v>
   <v>       0.08941065      -0.36050101      -0.25086606 </v>
   <v>       0.40203291       0.28352580      -0.14124720 </v>
   <v>       0.08930745      -0.36057106      -0.25086936 </v>
   <v>       0.08935805      -0.36052818      -0.25071631 </v>
   <v>       0.40202835       0.28355965      -0.14108084 </v>
   <v>       0.08926784      -0.36059676      -0.25071074 </v>
   <v>       0.40197135       0.28348223      -0.14110547 </v>
   <v>       0.06826520       0.22923075      -0.20672346 </v>
   <v>       0.11941813       0.24109153      -0.38518572 </v>
   <v>       0.06811068       0.22918728      -0.20626984 </v>
   <v>       0.11941780       0.24109903      -0.38522811 </v>
   <v>       0.06810219       0.22919567      -0.20630404 </v>
   <v>       0.11932248       0.24117196      -0.38501634 </v>
   <v>       0.11932155       0.24116256      -0.38498902 </v>
   <v>       0.06824829       0.22923870      -0.20674394 </v>
   <v>      -0.08891455      -0.04668306      -0.51834989 </v>
   <v>      -0.01693128       0.11349023      -0.74539936 </v>
   <v>      -0.08884036      -0.04663899      -0.51751975 </v>
   <v>      -0.01687717       0.11335404      -0.74459841 </v>
   <v>      -0.08869700      -0.04630493      -0.51505757 </v>
   <v>      -0.01706427       0.11313563      -0.74482148 </v>
   <v>      -0.01718618       0.11317672      -0.74570065 </v>
   <v>      -0.08875896      -0.04636743      -0.51582233 </v>
   <v>      -0.16192816      -0.06109372      -0.25651006 </v>
   <v>      -0.18305903      -0.16936653      -0.43359127 </v>
   <v>      -0.16167931      -0.06087810      -0.25621760 </v>
   <v>      -0.18250585      -0.16904408      -0.43331158 </v>
   <v>      -0.16168201      -0.06085817      -0.25613771 </v>
   <v>      -0.18254577      -0.16903189      -0.43317709 </v>
   <v>      -0.16193421      -0.06106616      -0.25644959 </v>
   <v>      -0.18308511      -0.16935956      -0.43347749 </v>
   <v>      -0.03162953      -0.21558631      -0.21541298 </v>
   <v>      -0.03098689       0.06819174      -0.39749179 </v>
   <v>      -0.03319666      -0.21677983      -0.21809484 </v>
   <v>      -0.03148204       0.06789328      -0.39837234 </v>
   <v>      -0.03360402      -0.21707119      -0.21860979 </v>
   <v>      -0.03256551       0.06716775      -0.39939866 </v>
   <v>      -0.03205772       0.06749914      -0.39851494 </v>
   <v>      -0.03215662      -0.21595693      -0.21610009 </v>
   <v>       0.21012425       0.05327628      -0.71171661 </v>
   <v>       0.04696144      -0.00380119      -1.13298784 </v>
   <v>       0.21061855       0.05339756      -0.71391517 </v>
   <v>       0.04822790      -0.00328243      -1.13984798 </v>
   <v>       0.21033875       0.05347944      -0.71359381 </v>
   <v>       0.04659927      -0.00403704      -1.13131315 </v>
   <v>       0.20987344       0.05329176      -0.71140864 </v>
   <v>       0.04785555      -0.00404242      -1.13654648 </v>
  </varray>
  <varray name="stress" >
   <v>    -115.74339487       1.26471120       0.80372542 </v>
   <v>       1.26471104    -118.63778786      -0.87360240 </v>
   <v>       0.80372539      -0.87360241     -95.26550594 </v>
  </varray>
  <energy>
   <i name="e_fr_energy">  -1050.95063573 </i>
   <i name="e_wo_entrp">  -1051.02890026 </i>
   <i name="e_0_energy">      0.23479360 </i>
  </energy>
  <time name="totalsc">  303.98  304.95</time>
 </calculation>
 <calculation>
  <scstep>
   <time name="diag">    5.57    5.59</time>
   <time name="diis">   11.53   11.56</time>
   <time name="orth">    1.81    1.82</time>
   <time name="total">   20.14   20.21</time>
   <energy>
    <i name="alphaZ">   1779.96973948 </i>
    <i name="ewald"> 648884.67529792 </i>
    <i name="hartreedc">-721772.00229259 </i>
    <i name="XCdc">  -1942.33666736 </i>
    <i name="pawpsdc">  91181.12834045 </i>
    <i name="pawaedc"> -86740.39556322 </i>
    <i name="eentropy">      0.23290588 </i>
    <i name="bandstr">  -1083.18090444 </i>
    <i name="atom">  68983.85746649 </i>
    <i name="e_fr_energy">   -708.05167740 </i>
    <i name="e_wo_entrp">   -708.28458328 </i>
    <i name="e_0_energy">   -708.12931269 </i>
   </energy>
  </scstep>
  <scstep>
   <time name="diag">    5.57    5.58</time>
   <time name="diis">   11.30   11.34</time>
   <time name="orth">    1.81    1.82</time>
   <time name="total">   19.91   19.97</time>
   <energy>
    <i name="e_fr_energy">   -715.36005834 </i>
    <i name="e_wo_entrp">   -715.45321070 </i>
    <i name="e_0_energy">   -715.39110912 </i>
   </energy>
  </scstep>
  <scstep>
   <time name="diag">    5.57    5.58</time>
   <time name="diis">   11.17   11.21</time>
   <time name="orth">    1.81    1.81</time>
   <time name="total">   19.77   19.83</time>
   <energy>
    <i name="e_fr_energy">   -708.70695427 </i>
    <i name="e_wo_entrp">   -708.92553451 </i>
    <i name="e_0_energy">   -708.77981435 </i>
   </energy>
  </scstep>
  <scstep>
   <time name="diag">    5.56    5.58</time>
   <time name="diis">   11.36   11.40</time>
   <time name="orth">    1.88    1.88</time>
   <time name="total">   20.02   20.08</time>
   <energy>
    <i name="e_fr_energy">   -708.22795895 </i>
    <i name="e_wo_entrp">   -708.47720356 </i>
    <i name="e_0_energy">   -708.31104049 </i>
   </energy>
  </scstep>
  <scstep>
   <time name="diag">    5.56    5.58</time>
   <time name="diis">   11.32   11.36</time>
   <time name="orth">    1.99    2.01</time>
   <time name="total">   20.09   20.17</time>
   <energy>
    <i name="e_fr_energy">   -708.13013341 </i>
    <i name="e_wo_entrp">   -708.35522111 </i>
    <i name="e_0_energy">   -708.20516264 </i>
   </energy>
  </scstep>
  <scstep>
   <time name="diag">    5.56    5.57</time>
   <time name="diis">   11.43   11.47</time>
   <time name="orth">    1.82    1.83</time>
   <time name="total">   20.09   20.16</time>
   <energy>
    <i name="e_fr_energy">   -708.09151035 </i>
    <i name="e_wo_entrp">   -708.31894180 </i>
    <i name="e_0_energy">   -708.16732083 </i>
   </energy>
  </scstep>
  <scstep>
   <time name="diag">    5.56    5.58</time>
   <time name="diis">   11.70   11.75</time>
   <time name="orth">    1.81    1.82</time>
   <time name="total">   20.31   20.37</time>
   <energy>
    <i name="e_fr_energy">   -708.07085091 </i>
    <i name="e_wo_entrp">   -708.30604952 </i>
    <i name="e_0_energy">   -708.14925045 </i>
   </energy>
  </scstep>
  <scstep>
