  64  64   1   0
  0.4457209E+02  0.1108838E-08  0.1108838E-08  0.2679022E-08  0.1000000E-15
  1.000000000000000E-004
  CAR 
 unknown system                          
      6.37541561    -12.34407672  301     -1.03153831      1.00000000
    -12.344  0.0000E+00  0.0000E+00
    -12.282  0.0000E+00  0.0000E+00
    -12.219  0.0000E+00  0.0000E+00
    -12.157  0.0000E+00  0.0000E+00
    -12.094  0.0000E+00  0.0000E+00
    -12.032  0.0000E+00  0.0000E+00
    -11.970 -0.4670E-30 -0.2914E-31
    -11.907 -0.6450E-28 -0.4054E-29
    -11.845 -0.7363E-26 -0.4635E-27
    -11.782 -0.6904E-24 -0.4354E-25
    -11.720 -0.5316E-22 -0.3361E-23
    -11.658 -0.3361E-20 -0.2131E-21
    -11.595 -0.1744E-18 -0.1109E-19
    -11.533 -0.7425E-17 -0.4744E-18
    -11.471 -0.2510E-15 -0.1613E-16
    -11.408 -0.7167E-14 -0.4633E-15
    -11.346 -0.1674E-12 -0.1091E-13
    -11.283 -0.3199E-11 -0.2105E-12
    -11.221 -0.4999E-10 -0.3330E-11
    -11.159 -0.6381E-09 -0.4314E-10
    -11.096 -0.6647E-08 -0.4579E-09
    -11.034 -0.5645E-07 -0.3980E-08
    -10.971 -0.3904E-06 -0.2834E-07
    -10.909 -0.2196E-05 -0.1654E-06
    -10.847 -0.1004E-04 -0.7916E-06
    -10.784 -0.3719E-04 -0.3112E-05
    -10.722 -0.1112E-03 -0.1005E-04
    -10.659 -0.2645E-03 -0.2656E-04
    -10.597 -0.4790E-03 -0.5644E-04
    -10.535 -0.5581E-03 -0.9127E-04
    -10.472  0.2301E-04 -0.8984E-04
    -10.410  0.2065E-02  0.3902E-04
    -10.347  0.6048E-02  0.4164E-03
    -10.285  0.1113E-01  0.1111E-02
    -10.223  0.1499E-01  0.2047E-02
    -10.160  0.1568E-01  0.3025E-02
    -10.098  0.1410E-01  0.3905E-02
    -10.035  0.1368E-01  0.4759E-02
     -9.973  0.1682E-01  0.5808E-02
     -9.911  0.2196E-01  0.7178E-02
     -9.848  0.2487E-01  0.8730E-02
     -9.786  0.2245E-01  0.1013E-01
     -9.723  0.1541E-01  0.1109E-01
     -9.661  0.8196E-02  0.1160E-01
     -9.599  0.6251E-02  0.1199E-01
     -9.536  0.1198E-01  0.1274E-01
     -9.474  0.2211E-01  0.1412E-01
     -9.411  0.2983E-01  0.1598E-01
     -9.349  0.3077E-01  0.1790E-01
     -9.287  0.2666E-01  0.1957E-01
     -9.224  0.2225E-01  0.2096E-01
     -9.162  0.2000E-01  0.2220E-01
     -9.099  0.1926E-01  0.2341E-01
     -9.037  0.1942E-01  0.2462E-01
     -8.975  0.2210E-01  0.2600E-01
     -8.912  0.2994E-01  0.2786E-01
     -8.850  0.4319E-01  0.3056E-01
     -8.787  0.5697E-01  0.3411E-01
     -8.725  0.6374E-01  0.3809E-01
     -8.663  0.5962E-01  0.4181E-01
     -8.600  0.4755E-01  0.4478E-01
     -8.538  0.3353E-01  0.4687E-01
     -8.475  0.2212E-01  0.4825E-01
     -8.413  0.1652E-01  0.4928E-01
     -8.351  0.2020E-01  0.5054E-01
     -8.288  0.3498E-01  0.5272E-01
     -8.226  0.5767E-01  0.5632E-01
     -8.163  0.7994E-01  0.6131E-01
     -8.101  0.9235E-01  0.6707E-01
     -8.039  0.8970E-01  0.7267E-01
     -7.976  0.7452E-01  0.7732E-01
     -7.914  0.5690E-01  0.8087E-01
     -7.851  0.5070E-01  0.8403E-01
     -7.789  0.6721E-01  0.8823E-01
     -7.727  0.1082E+00  0.9498E-01
     -7.664  0.1626E+00  0.1051E+00
     -7.602  0.2107E+00  0.1183E+00
     -7.539  0.2354E+00  0.1330E+00
     -7.477  0.2350E+00  0.1476E+00
     -7.415  0.2267E+00  0.1618E+00
     -7.352  0.2327E+00  0.1763E+00
     -7.290  0.2565E+00  0.1923E+00
     -7.227  0.2765E+00  0.2096E+00
     -7.165  0.2711E+00  0.2265E+00
     -7.103  0.2462E+00  0.2418E+00
     -7.040  0.2317E+00  0.2563E+00
     -6.978  0.2550E+00  0.2722E+00
     -6.915  0.3206E+00  0.2922E+00
     -6.853  0.4072E+00  0.3176E+00
     -6.791  0.4791E+00  0.3475E+00
     -6.728  0.5082E+00  0.3792E+00
     -6.666  0.4975E+00  0.4103E+00
     -6.603  0.4780E+00  0.4401E+00
     -6.541  0.4751E+00  0.4697E+00
     -6.479  0.4818E+00  0.4998E+00
     -6.416  0.4736E+00  0.5294E+00
     -6.354  0.4411E+00  0.5569E+00
     -6.291  0.3966E+00  0.5816E+00
     -6.229  0.3566E+00  0.6039E+00
     -6.167  0.3261E+00  0.6242E+00
     -6.104  0.2999E+00  0.6429E+00
     -6.042  0.2768E+00  0.6602E+00
     -5.979  0.2695E+00  0.6770E+00
     -5.917  0.2937E+00  0.6953E+00
     -5.855  0.3445E+00  0.7168E+00
     -5.792  0.3940E+00  0.7414E+00
     -5.730  0.4167E+00  0.7674E+00
     -5.667  0.4107E+00  0.7931E+00
     -5.605  0.3907E+00  0.8174E+00
     -5.543  0.3705E+00  0.8405E+00
     -5.480  0.3585E+00  0.8629E+00
     -5.418  0.3605E+00  0.8854E+00
     -5.355  0.3753E+00  0.9088E+00
     -5.293  0.3905E+00  0.9332E+00
     -5.231  0.3941E+00  0.9578E+00
     -5.168  0.3909E+00  0.9822E+00
     -5.106  0.3986E+00  0.1007E+01
     -5.043  0.4268E+00  0.1034E+01
     -4.981  0.4640E+00  0.1063E+01
     -4.919  0.4908E+00  0.1093E+01
     -4.856  0.5009E+00  0.1125E+01
     -4.794  0.5072E+00  0.1156E+01
     -4.731  0.5248E+00  0.1189E+01
     -4.669  0.5515E+00  0.1223E+01
     -4.607  0.5700E+00  0.1259E+01
     -4.544  0.5677E+00  0.1294E+01
     -4.482  0.5494E+00  0.1329E+01
     -4.419  0.5303E+00  0.1362E+01
     -4.357  0.5231E+00  0.1394E+01
     -4.295  0.5380E+00  0.1428E+01
     -4.232  0.5844E+00  0.1464E+01
     -4.170  0.6605E+00  0.1506E+01
     -4.108  0.7418E+00  0.1552E+01
     -4.045  0.7924E+00  0.1601E+01
     -3.983  0.7950E+00  0.1651E+01
     -3.920  0.7644E+00  0.1699E+01
     -3.858  0.7263E+00  0.1744E+01
     -3.796  0.6884E+00  0.1787E+01
     -3.733  0.6374E+00  0.1827E+01
     -3.671  0.5634E+00  0.1862E+01
     -3.608  0.4781E+00  0.1892E+01
     -3.546  0.4045E+00  0.1917E+01
     -3.484  0.3560E+00  0.1939E+01
     -3.421  0.3331E+00  0.1960E+01
     -3.359  0.3350E+00  0.1981E+01
     -3.296  0.3657E+00  0.2004E+01
     -3.234  0.4251E+00  0.2030E+01
     -3.172  0.4984E+00  0.2061E+01
     -3.109  0.5628E+00  0.2096E+01
     -3.047  0.6019E+00  0.2134E+01
     -2.984  0.6084E+00  0.2172E+01
     -2.922  0.5780E+00  0.2208E+01
     -2.860  0.5130E+00  0.2240E+01
     -2.797  0.4343E+00  0.2267E+01
     -2.735  0.3761E+00  0.2291E+01
     -2.672  0.3613E+00  0.2313E+01
     -2.610  0.3829E+00  0.2337E+01
     -2.548  0.4149E+00  0.2363E+01
     -2.485  0.4393E+00  0.2390E+01
     -2.423  0.4570E+00  0.2419E+01
     -2.360  0.4773E+00  0.2449E+01
     -2.298  0.5057E+00  0.2480E+01
     -2.236  0.5448E+00  0.2514E+01
     -2.173  0.5942E+00  0.2551E+01
     -2.111  0.6435E+00  0.2591E+01
     -2.048  0.6712E+00  0.2633E+01
     -1.986  0.6544E+00  0.2674E+01
     -1.924  0.5853E+00  0.2711E+01
     -1.861  0.4834E+00  0.2741E+01
     -1.799  0.3934E+00  0.2765E+01
     -1.736  0.3590E+00  0.2788E+01
     -1.674  0.3906E+00  0.2812E+01
     -1.612  0.4606E+00  0.2841E+01
     -1.549  0.5329E+00  0.2874E+01
     -1.487  0.5876E+00  0.2911E+01
     -1.424  0.6180E+00  0.2949E+01
     -1.362  0.6224E+00  0.2988E+01
     -1.300  0.6105E+00  0.3026E+01
     -1.237  0.6066E+00  0.3064E+01
     -1.175  0.6292E+00  0.3103E+01
     -1.112  0.6665E+00  0.3145E+01
     -1.050  0.6836E+00  0.3188E+01
     -0.988  0.6602E+00  0.3229E+01
     -0.925  0.6104E+00  0.3267E+01
     -0.863  0.5587E+00  0.3302E+01
     -0.800  0.5048E+00  0.3333E+01
     -0.738  0.4282E+00  0.3360E+01
     -0.676  0.3227E+00  0.3380E+01
     -0.613  0.2139E+00  0.3393E+01
     -0.551  0.1374E+00  0.3402E+01
     -0.488  0.1073E+00  0.3409E+01
     -0.426  0.1068E+00  0.3415E+01
     -0.364  0.1065E+00  0.3422E+01
     -0.301  0.9051E-01  0.3428E+01
     -0.239  0.6625E-01  0.3432E+01
     -0.176  0.5272E-01  0.3435E+01
     -0.114  0.6219E-01  0.3439E+01
     -0.052  0.9222E-01  0.3445E+01
      0.011  0.1308E+00  0.3453E+01
      0.073  0.1653E+00  0.3463E+01
      0.136  0.1860E+00  0.3475E+01
      0.198  0.1863E+00  0.3486E+01
      0.260  0.1659E+00  0.3497E+01
      0.323  0.1334E+00  0.3505E+01
      0.385  0.1022E+00  0.3511E+01
      0.448  0.7965E-01  0.3516E+01
      0.510  0.6335E-01  0.3520E+01
      0.572  0.4732E-01  0.3523E+01
      0.635  0.2967E-01  0.3525E+01
      0.697  0.1448E-01  0.3526E+01
      0.760  0.9770E-02  0.3527E+01
      0.822  0.2387E-01  0.3528E+01
      0.884  0.5931E-01  0.3532E+01
      0.947  0.1074E+00  0.3539E+01
      1.009  0.1501E+00  0.3548E+01
      1.072  0.1711E+00  0.3559E+01
      1.134  0.1669E+00  0.3569E+01
      1.196  0.1487E+00  0.3578E+01
      1.259  0.1316E+00  0.3587E+01
      1.321  0.1228E+00  0.3594E+01
      1.384  0.1194E+00  0.3602E+01
      1.446  0.1180E+00  0.3609E+01
      1.508  0.1186E+00  0.3616E+01
      1.571  0.1206E+00  0.3624E+01
      1.633  0.1189E+00  0.3631E+01
      1.696  0.1087E+00  0.3638E+01
      1.758  0.9144E-01  0.3644E+01
      1.820  0.7095E-01  0.3648E+01
      1.883  0.4974E-01  0.3651E+01
      1.945  0.3172E-01  0.3653E+01
      2.008  0.2604E-01  0.3655E+01
      2.070  0.4279E-01  0.3658E+01
      2.132  0.8292E-01  0.3663E+01
      2.195  0.1323E+00  0.3671E+01
      2.257  0.1672E+00  0.3682E+01
      2.320  0.1697E+00  0.3692E+01
      2.382  0.1422E+00  0.3701E+01
      2.444  0.1048E+00  0.3708E+01
      2.507  0.7825E-01  0.3712E+01
      2.569  0.6721E-01  0.3717E+01
      2.632  0.6292E-01  0.3721E+01
      2.694  0.5805E-01  0.3724E+01
      2.756  0.5576E-01  0.3728E+01
      2.819  0.6360E-01  0.3732E+01
      2.881  0.8240E-01  0.3737E+01
      2.944  0.1051E+00  0.3743E+01
      3.006  0.1259E+00  0.3751E+01
      3.068  0.1445E+00  0.3760E+01
      3.131  0.1596E+00  0.3770E+01
      3.193  0.1622E+00  0.3780E+01
      3.256  0.1437E+00  0.3789E+01
      3.318  0.1079E+00  0.3796E+01
      3.380  0.7048E-01  0.3800E+01
      3.443  0.4533E-01  0.3803E+01
      3.505  0.3621E-01  0.3805E+01
      3.567  0.3854E-01  0.3808E+01
      3.630  0.4393E-01  0.3811E+01
      3.692  0.4408E-01  0.3813E+01
      3.755  0.3593E-01  0.3816E+01
      3.817  0.2486E-01  0.3817E+01
      3.879  0.2012E-01  0.3818E+01
      3.942  0.2588E-01  0.3820E+01
      4.004  0.3785E-01  0.3822E+01
      4.067  0.4824E-01  0.3825E+01
      4.129  0.5241E-01  0.3829E+01
      4.191  0.5059E-01  0.3832E+01
      4.254  0.4507E-01  0.3835E+01
      4.316  0.3725E-01  0.3837E+01
      4.379  0.2752E-01  0.3839E+01
      4.441  0.1684E-01  0.3840E+01
      4.503  0.7460E-02  0.3840E+01
      4.566  0.1387E-02  0.3840E+01
      4.628 -0.1128E-02  0.3840E+01
      4.691 -0.1377E-02  0.3840E+01
      4.753 -0.8514E-03  0.3840E+01
      4.815 -0.3724E-03  0.3840E+01
      4.878 -0.1246E-03  0.3840E+01
      4.940 -0.3291E-04  0.3840E+01
      5.003 -0.6964E-05  0.3840E+01
      5.065 -0.1191E-05  0.3840E+01
      5.127 -0.1654E-06  0.3840E+01
      5.190 -0.1873E-07  0.3840E+01
      5.252 -0.1733E-08  0.3840E+01
      5.315 -0.1313E-09  0.3840E+01
      5.377 -0.8145E-11  0.3840E+01
      5.439 -0.4145E-12  0.3840E+01
      5.502 -0.1731E-13  0.3840E+01
      5.564 -0.5916E-15  0.3840E+01
      5.627 -0.1334E-16  0.3840E+01
      5.689  0.0000E+00  0.3840E+01
      5.751  0.0000E+00  0.3840E+01
      5.814  0.0000E+00  0.3840E+01
      5.876  0.0000E+00  0.3840E+01
      5.939  0.0000E+00  0.3840E+01
      6.001  0.0000E+00  0.3840E+01
      6.063  0.0000E+00  0.3840E+01
      6.126  0.0000E+00  0.3840E+01
      6.188  0.0000E+00  0.3840E+01
      6.251  0.0000E+00  0.3840E+01
      6.313  0.0000E+00  0.3840E+01
      6.375  0.0000E+00  0.3840E+01
      6.37541561    -12.34407672  301     -1.03153831      1.00000000
    -12.344  0.0000E+00  0.0000E+00  0.0000E+00
    -12.282  0.0000E+00  0.0000E+00  0.0000E+00
    -12.219  0.0000E+00  0.0000E+00  0.0000E+00
    -12.157  0.0000E+00  0.0000E+00  0.0000E+00
    -12.094  0.0000E+00  0.0000E+00  0.0000E+00
    -12.032  0.0000E+00  0.0000E+00  0.0000E+00
    -11.970 -0.5330E-30 -0.4578E-31 -0.1331E-32
    -11.907 -0.7361E-28 -0.6323E-29 -0.1838E-30
    -11.845 -0.8403E-26 -0.7218E-27 -0.2099E-28
    -11.782 -0.7879E-24 -0.6768E-25 -0.1968E-26
    -11.720 -0.6067E-22 -0.5211E-23 -0.1516E-24
    -11.658 -0.3836E-20 -0.3295E-21 -0.9585E-23
    -11.595 -0.1990E-18 -0.1710E-19 -0.4976E-21
    -11.533 -0.8474E-17 -0.7280E-18 -0.2120E-19
    -11.471 -0.2864E-15 -0.2461E-16 -0.7172E-18
    -11.408 -0.8179E-14 -0.7027E-15 -0.2051E-16
    -11.346 -0.1910E-12 -0.1641E-13 -0.4801E-15
    -11.283 -0.3650E-11 -0.3138E-12 -0.9209E-14
    -11.221 -0.5704E-10 -0.4906E-11 -0.1447E-12
    -11.159 -0.7281E-09 -0.6267E-10 -0.1864E-11
    -11.096 -0.7584E-08 -0.6535E-09 -0.1968E-10
    -11.034 -0.6439E-07 -0.5559E-08 -0.1706E-09
    -10.971 -0.4452E-06 -0.3855E-07 -0.1218E-08
    -10.909 -0.2503E-05 -0.2177E-06 -0.7182E-08
    -10.847 -0.1143E-04 -0.1001E-05 -0.3515E-07
    -10.784 -0.4233E-04 -0.3745E-05 -0.1433E-06
    -10.722 -0.1264E-03 -0.1135E-04 -0.4864E-06
    -10.659 -0.3001E-03 -0.2754E-04 -0.1358E-05
    -10.597 -0.5416E-03 -0.5135E-04 -0.3014E-05
    -10.535 -0.6272E-03 -0.6334E-04 -0.4841E-05
    -10.472  0.3774E-04 -0.7819E-05 -0.3804E-05
    -10.410  0.2355E-02  0.2039E-03  0.6033E-05
    -10.347  0.6864E-02  0.6283E-03  0.2927E-04
    -10.285  0.1261E-01  0.1177E-02  0.6089E-04
    -10.223  0.1697E-01  0.1599E-02  0.8563E-04
    -10.160  0.1773E-01  0.1689E-02  0.9613E-04
    -10.098  0.1587E-01  0.1575E-02  0.1149E-03
    -10.035  0.1523E-01  0.1662E-02  0.1851E-03
     -9.973  0.1850E-01  0.2211E-02  0.3254E-03
     -9.911  0.2402E-01  0.2990E-02  0.4911E-03
     -9.848  0.2716E-01  0.3432E-02  0.5878E-03
     -9.786  0.2452E-01  0.3113E-02  0.5371E-03
     -9.723  0.1686E-01  0.2132E-02  0.3565E-03
     -9.661  0.8949E-02  0.1148E-02  0.1979E-03
     -9.599  0.6609E-02  0.1006E-02  0.2807E-03
     -9.536  0.1238E-01  0.2096E-02  0.7114E-03
     -9.474  0.2281E-01  0.3888E-02  0.1328E-02
     -9.411  0.3069E-01  0.5254E-02  0.1796E-02
     -9.349  0.3148E-01  0.5462E-02  0.1928E-02
     -9.287  0.2735E-01  0.4771E-02  0.1870E-02
     -9.224  0.2400E-01  0.3892E-02  0.1879E-02
     -9.162  0.2471E-01  0.3138E-02  0.2028E-02
     -9.099  0.2849E-01  0.2442E-02  0.2225E-02
     -9.037  0.3271E-01  0.1999E-02  0.2477E-02
     -8.975  0.3666E-01  0.2487E-02  0.3069E-02
     -8.912  0.4285E-01  0.4507E-02  0.4413E-02
     -8.850  0.5430E-01  0.7752E-02  0.6550E-02
     -8.787  0.6919E-01  0.1079E-01  0.8730E-02
     -8.725  0.7973E-01  0.1197E-01  0.9821E-02
     -8.663  0.7858E-01  0.1085E-01  0.9353E-02
     -8.600  0.6523E-01  0.8400E-02  0.7882E-02
     -8.538  0.4570E-01  0.5917E-02  0.6146E-02
     -8.475  0.2845E-01  0.4080E-02  0.4368E-02
     -8.413  0.2151E-01  0.3280E-02  0.2790E-02
     -8.351  0.2971E-01  0.4242E-02  0.2604E-02
     -8.288  0.5116E-01  0.7612E-02  0.5761E-02
     -8.226  0.7736E-01  0.1290E-01  0.1362E-01
     -8.163  0.9864E-01  0.1807E-01  0.2562E-01
     -8.101  0.1093E+00  0.2055E-01  0.3900E-01
     -8.039  0.1073E+00  0.1888E-01  0.4938E-01
     -7.976  0.9377E-01  0.1396E-01  0.5241E-01
     -7.914  0.7539E-01  0.8768E-02  0.4739E-01
     -7.851  0.6668E-01  0.6796E-02  0.4138E-01
     -7.789  0.8192E-01  0.1022E-01  0.4778E-01
     -7.727  0.1207E+00  0.1855E-01  0.7622E-01
     -7.664  0.1629E+00  0.2847E-01  0.1219E+00
     -7.602  0.1829E+00  0.3546E-01  0.1663E+00
     -7.539  0.1690E+00  0.3644E-01  0.1916E+00
     -7.477  0.1334E+00  0.3220E-01  0.1963E+00
     -7.415  0.1052E+00  0.2761E-01  0.1981E+00
     -7.352  0.1096E+00  0.2818E-01  0.2173E+00
     -7.290  0.1458E+00  0.3463E-01  0.2525E+00
     -7.227  0.1842E+00  0.4144E-01  0.2777E+00
     -7.165  0.1920E+00  0.4250E-01  0.2711E+00
     -7.103  0.1654E+00  0.3789E-01  0.2476E+00
     -7.040  0.1312E+00  0.3355E-01  0.2584E+00
     -6.978  0.1209E+00  0.3505E-01  0.3561E+00
     -6.915  0.1465E+00  0.4320E-01  0.5512E+00
     -6.853  0.1957E+00  0.5449E-01  0.7875E+00
     -6.791  0.2402E+00  0.6367E-01  0.9625E+00
     -6.728  0.2535E+00  0.6663E-01  0.1000E+01
     -6.666  0.2295E+00  0.6338E-01  0.9224E+00
     -6.603  0.1875E+00  0.5825E-01  0.8290E+00
     -6.541  0.1533E+00  0.5562E-01  0.7980E+00
     -6.479  0.1361E+00  0.5542E-01  0.8117E+00
     -6.416  0.1261E+00  0.5405E-01  0.7987E+00
     -6.354  0.1120E+00  0.4923E-01  0.7231E+00
     -6.291  0.9248E-01  0.4245E-01  0.6130E+00
     -6.229  0.7382E-01  0.3675E-01  0.5181E+00
     -6.167  0.6031E-01  0.3343E-01  0.4632E+00
     -6.104  0.5087E-01  0.3144E-01  0.4422E+00
     -6.042  0.4276E-01  0.2976E-01  0.4478E+00
     -5.979  0.3594E-01  0.2941E-01  0.4979E+00
     -5.917  0.3228E-01  0.3234E-01  0.6149E+00
     -5.855  0.3183E-01  0.3820E-01  0.7775E+00
     -5.792  0.3214E-01  0.4374E-01  0.9188E+00
     -5.730  0.3109E-01  0.4601E-01  0.9844E+00
     -5.667  0.2859E-01  0.4508E-01  0.9779E+00
     -5.605  0.2555E-01  0.4313E-01  0.9395E+00
     -5.543  0.2270E-01  0.4183E-01  0.8970E+00
     -5.480  0.2073E-01  0.4145E-01  0.8544E+00
     -5.418  0.2038E-01  0.4132E-01  0.8107E+00
     -5.355  0.2160E-01  0.4018E-01  0.7654E+00
     -5.293  0.2293E-01  0.3657E-01  0.7121E+00
     -5.231  0.2254E-01  0.3027E-01  0.6519E+00
     -5.168  0.2007E-01  0.2318E-01  0.6146E+00
     -5.106  0.1696E-01  0.1815E-01  0.6439E+00
     -5.043  0.1496E-01  0.1666E-01  0.7519E+00
     -4.981  0.1492E-01  0.1815E-01  0.8974E+00
     -4.919  0.1738E-01  0.2135E-01  0.1022E+01
     -4.856  0.2342E-01  0.2598E-01  0.1110E+01
     -4.794  0.3363E-01  0.3263E-01  0.1198E+01
     -4.731  0.4548E-01  0.4075E-01  0.1317E+01
     -4.669  0.5321E-01  0.4756E-01  0.1437E+01
     -4.607  0.5232E-01  0.5008E-01  0.1491E+01
     -4.544  0.4451E-01  0.4852E-01  0.1449E+01
     -4.482  0.3684E-01  0.4680E-01  0.1355E+01
     -4.419  0.3568E-01  0.4878E-01  0.1290E+01
     -4.357  0.4171E-01  0.5454E-01  0.1313E+01
     -4.295  0.5081E-01  0.6115E-01  0.1445E+01
     -4.232  0.5903E-01  0.6671E-01  0.1682E+01
     -4.170  0.6533E-01  0.7176E-01  0.1989E+01
     -4.108  0.6949E-01  0.7615E-01  0.2273E+01
     -4.045  0.6968E-01  0.7715E-01  0.2414E+01
     -3.983  0.6427E-01  0.7304E-01  0.2365E+01
     -3.920  0.5537E-01  0.6671E-01  0.2200E+01
     -3.858  0.4781E-01  0.6306E-01  0.2042E+01
     -3.796  0.4435E-01  0.6364E-01  0.1930E+01
     -3.733  0.4353E-01  0.6636E-01  0.1810E+01
     -3.671  0.4272E-01  0.6949E-01  0.1632E+01
     -3.608  0.4159E-01  0.7325E-01  0.1433E+01
     -3.546  0.4203E-01  0.7768E-01  0.1278E+01
     -3.484  0.4545E-01  0.8175E-01  0.1183E+01
     -3.421  0.5092E-01  0.8477E-01  0.1113E+01
     -3.359  0.5572E-01  0.8718E-01  0.1048E+01
     -3.296  0.5742E-01  0.8968E-01  0.1020E+01
     -3.234  0.5515E-01  0.9205E-01  0.1073E+01
     -3.172  0.4931E-01  0.9241E-01  0.1213E+01
     -3.109  0.4128E-01  0.8840E-01  0.1393E+01
     -3.047  0.3330E-01  0.7954E-01  0.1540E+01
     -2.984  0.2757E-01  0.6803E-01  0.1598E+01
     -2.922  0.2481E-01  0.5681E-01  0.1549E+01
     -2.860  0.2389E-01  0.4767E-01  0.1423E+01
     -2.797  0.2308E-01  0.4157E-01  0.1285E+01
     -2.735  0.2168E-01  0.3933E-01  0.1202E+01
     -2.672  0.2058E-01  0.4119E-01  0.1195E+01
     -2.610  0.2101E-01  0.4666E-01  0.1225E+01
     -2.548  0.2292E-01  0.5510E-01  0.1241E+01
     -2.485  0.2486E-01  0.6489E-01  0.1233E+01
     -2.423  0.2577E-01  0.7216E-01  0.1228E+01
     -2.360  0.2682E-01  0.7321E-01  0.1261E+01
     -2.298  0.3087E-01  0.6908E-01  0.1350E+01
     -2.236  0.3936E-01  0.6501E-01  0.1505E+01
     -2.173  0.4969E-01  0.6456E-01  0.1719E+01
     -2.111  0.5665E-01  0.6640E-01  0.1944E+01
     -2.048  0.5700E-01  0.6728E-01  0.2096E+01
     -1.986  0.5191E-01  0.6526E-01  0.2096E+01
     -1.924  0.4451E-01  0.5920E-01  0.1918E+01
     -1.861  0.3667E-01  0.4886E-01  0.1614E+01
     -1.799  0.2925E-01  0.3717E-01  0.1306E+01
     -1.736  0.2386E-01  0.3017E-01  0.1122E+01
     -1.674  0.2245E-01  0.3219E-01  0.1116E+01
     -1.612  0.2508E-01  0.4158E-01  0.1239E+01
     -1.549  0.2927E-01  0.5192E-01  0.1412E+01
     -1.487  0.3184E-01  0.5748E-01  0.1576E+01
     -1.424  0.3129E-01  0.5684E-01  0.1690E+01
     -1.362  0.2857E-01  0.5206E-01  0.1717E+01
     -1.300  0.2600E-01  0.4598E-01  0.1675E+01
     -1.237  0.2538E-01  0.4049E-01  0.1653E+01
     -1.175  0.2658E-01  0.3611E-01  0.1734E+01
     -1.112  0.2800E-01  0.3262E-01  0.1887E+01
     -1.050  0.2874E-01  0.3022E-01  0.1978E+01
     -0.988  0.3001E-01  0.3009E-01  0.1900E+01
     -0.925  0.3358E-01  0.3342E-01  0.1679E+01
     -0.863  0.3857E-01  0.3947E-01  0.1424E+01
     -0.800  0.4052E-01  0.4463E-01  0.1207E+01
     -0.738  0.3544E-01  0.4424E-01  0.1014E+01
     -0.676  0.2510E-01  0.3663E-01  0.8068E+00
     -0.613  0.1721E-01  0.2574E-01  0.5925E+00
     -0.551  0.1892E-01  0.1870E-01  0.4166E+00
     -0.488  0.2970E-01  0.1945E-01  0.3135E+00
     -0.426  0.4083E-01  0.2502E-01  0.2711E+00
     -0.364  0.4286E-01  0.2871E-01  0.2441E+00
     -0.301  0.3378E-01  0.2669E-01  0.2010E+00
     -0.239  0.1981E-01  0.2134E-01  0.1507E+00
     -0.176  0.9329E-02  0.1866E-01  0.1266E+00
     -0.114  0.7468E-02  0.2331E-01  0.1490E+00
     -0.052  0.1573E-01  0.3566E-01  0.2067E+00
      0.011  0.3360E-01  0.5246E-01  0.2703E+00
      0.073  0.5760E-01  0.6921E-01  0.3160E+00
      0.136  0.7937E-01  0.8165E-01  0.3343E+00
      0.198  0.8819E-01  0.8608E-01  0.3238E+00
      0.260  0.7879E-01  0.8122E-01  0.2879E+00
      0.323  0.5641E-01  0.7013E-01  0.2380E+00
      0.385  0.3251E-01  0.5849E-01  0.1903E+00
      0.448  0.1569E-01  0.4949E-01  0.1538E+00
      0.510  0.7262E-02  0.4153E-01  0.1243E+00
      0.572  0.3914E-02  0.3147E-01  0.9331E-01
      0.635  0.2149E-02  0.1899E-01  0.5946E-01
      0.697  0.7540E-03  0.7710E-02  0.3073E-01
      0.760  0.1274E-02  0.3679E-02  0.1991E-01
      0.822  0.6886E-02  0.1301E-01  0.3810E-01
      0.884  0.1945E-01  0.3770E-01  0.8665E-01
      0.947  0.3667E-01  0.7101E-01  0.1519E+00
      1.009  0.5277E-01  0.9877E-01  0.2095E+00
      1.072  0.6276E-01  0.1088E+00  0.2388E+00
      1.134  0.6571E-01  0.1013E+00  0.2350E+00
      1.196  0.6352E-01  0.8807E-01  0.2104E+00
      1.259  0.5784E-01  0.8203E-01  0.1836E+00
      1.321  0.4981E-01  0.8581E-01  0.1665E+00
      1.384  0.4214E-01  0.9172E-01  0.1618E+00
      1.446  0.3909E-01  0.9147E-01  0.1696E+00
      1.508  0.4227E-01  0.8413E-01  0.1877E+00
      1.571  0.4740E-01  0.7479E-01  0.2046E+00
      1.633  0.4745E-01  0.6854E-01  0.2026E+00
      1.696  0.3972E-01  0.6732E-01  0.1743E+00
      1.758  0.2803E-01  0.6918E-01  0.1302E+00
      1.820  0.1769E-01  0.6821E-01  0.8665E-01
      1.883  0.1033E-01  0.5881E-01  0.5207E-01
      1.945  0.4828E-02  0.4309E-01  0.2849E-01
      2.008  0.1858E-02  0.3163E-01  0.2125E-01
      2.070  0.5498E-02  0.3422E-01  0.3938E-01
      2.132  0.1946E-01  0.5138E-01  0.8485E-01
      2.195  0.4121E-01  0.7492E-01  0.1429E+00
      2.257  0.6037E-01  0.9402E-01  0.1854E+00
      2.320  0.6559E-01  0.1005E+00  0.1895E+00
      2.382  0.5475E-01  0.9304E-01  0.1564E+00
      2.444  0.3777E-01  0.7807E-01  0.1111E+00
      2.507  0.2764E-01  0.6471E-01  0.8004E-01
      2.569  0.2876E-01  0.5664E-01  0.7073E-01
      2.632  0.3475E-01  0.5120E-01  0.7221E-01
      2.694  0.3701E-01  0.4666E-01  0.7321E-01
      2.756  0.3373E-01  0.4719E-01  0.7471E-01
      2.819  0.2996E-01  0.5789E-01  0.8470E-01
      2.881  0.3087E-01  0.7672E-01  0.1048E+00
      2.944  0.3683E-01  0.9534E-01  0.1267E+00
      3.006  0.4459E-01  0.1081E+00  0.1410E+00
      3.068  0.5102E-01  0.1161E+00  0.1457E+00
      3.131  0.5457E-01  0.1201E+00  0.1428E+00
      3.193  0.5445E-01  0.1149E+00  0.1322E+00
      3.256  0.5055E-01  0.9437E-01  0.1111E+00
      3.318  0.4398E-01  0.6195E-01  0.8164E-01
      3.380  0.3597E-01  0.3070E-01  0.5269E-01
      3.443  0.2677E-01  0.1274E-01  0.3345E-01
      3.505  0.1686E-01  0.1138E-01  0.2727E-01
      3.567  0.8257E-02  0.2166E-01  0.3135E-01
      3.630  0.2964E-02  0.3436E-01  0.3870E-01
      3.692  0.9287E-03  0.4029E-01  0.4108E-01
      3.755  0.5646E-03  0.3581E-01  0.3439E-01
      3.817  0.7890E-03  0.2596E-01  0.2251E-01
      3.879  0.1794E-02  0.1998E-01  0.1391E-01
      3.942  0.4115E-02  0.2241E-01  0.1392E-01
      4.004  0.7552E-02  0.2947E-01  0.2088E-01
      4.067  0.1105E-01  0.3398E-01  0.2875E-01
      4.129  0.1336E-01  0.3195E-01  0.3219E-01
      4.191  0.1378E-01  0.2451E-01  0.2960E-01
      4.254  0.1233E-01  0.1543E-01  0.2285E-01
      4.316  0.9553E-02  0.7970E-02  0.1511E-01
      4.379  0.6224E-02  0.3318E-02  0.8569E-02
      4.441  0.3153E-02  0.9936E-03  0.3933E-02
      4.503  0.9779E-03  0.1453E-04  0.1105E-02
      4.566 -0.1136E-03 -0.3128E-03 -0.2436E-03
      4.628 -0.3955E-03 -0.3305E-03 -0.5872E-03
      4.691 -0.3058E-03 -0.2257E-03 -0.4562E-03
      4.753 -0.1557E-03 -0.1150E-03 -0.2390E-03
      4.815 -0.5954E-04 -0.4549E-04 -0.9439E-04
      4.878 -0.1787E-04 -0.1422E-04 -0.2920E-04
      4.940 -0.4296E-05 -0.3553E-05 -0.7210E-05
      5.003 -0.8357E-06 -0.7153E-06 -0.1435E-05
      5.065 -0.1324E-06 -0.1167E-06 -0.2318E-06
      5.127 -0.1714E-07 -0.1548E-07 -0.3051E-07
      5.190 -0.1818E-08 -0.1677E-08 -0.3282E-08
      5.252 -0.1584E-09 -0.1486E-09 -0.2892E-09
      5.315 -0.1135E-10 -0.1079E-10 -0.2090E-10
      5.377 -0.6686E-12 -0.6437E-12 -0.1241E-11
      5.439 -0.3244E-13 -0.3154E-13 -0.6058E-13
      5.502 -0.1296E-14 -0.1271E-14 -0.2432E-14
      5.564 -0.4211E-16 -0.4189E-16 -0.7949E-16
      5.627 -0.6750E-18 -0.6946E-18 -0.1258E-17
      5.689  0.0000E+00  0.0000E+00  0.0000E+00
      5.751  0.0000E+00  0.0000E+00  0.0000E+00
      5.814  0.0000E+00  0.0000E+00  0.0000E+00
      5.876  0.0000E+00  0.0000E+00  0.0000E+00
      5.939  0.0000E+00  0.0000E+00  0.0000E+00
      6.001  0.0000E+00  0.0000E+00  0.0000E+00
      6.063  0.0000E+00  0.0000E+00  0.0000E+00
      6.126  0.0000E+00  0.0000E+00  0.0000E+00
      6.188  0.0000E+00  0.0000E+00  0.0000E+00
      6.251  0.0000E+00  0.0000E+00  0.0000E+00
      6.313  0.0000E+00  0.0000E+00  0.0000E+00
      6.375  0.0000E+00  0.0000E+00  0.0000E+00
      6.37541561    -12.34407672  301     -1.03153831      1.00000000
    -12.344  0.0000E+00  0.0000E+00  0.0000E+00
    -12.282  0.0000E+00  0.0000E+00  0.0000E+00
    -12.219  0.0000E+00  0.0000E+00  0.0000E+00
    -12.157  0.0000E+00  0.0000E+00  0.0000E+00
    -12.094  0.0000E+00  0.0000E+00  0.0000E+00
    -12.032  0.0000E+00  0.0000E+00  0.0000E+00
    -11.970 -0.5332E-30 -0.4580E-31 -0.1339E-32
    -11.907 -0.7364E-28 -0.6325E-29 -0.1850E-30
    -11.845 -0.8407E-26 -0.7221E-27 -0.2112E-28
    -11.782 -0.7882E-24 -0.6770E-25 -0.1981E-26
    -11.720 -0.6069E-22 -0.5213E-23 -0.1525E-24
    -11.658 -0.3837E-20 -0.3296E-21 -0.9645E-23
    -11.595 -0.1991E-18 -0.1710E-19 -0.5007E-21
    -11.533 -0.8477E-17 -0.7282E-18 -0.2133E-19
    -11.471 -0.2865E-15 -0.2462E-16 -0.7217E-18
    -11.408 -0.8182E-14 -0.7030E-15 -0.2064E-16
    -11.346 -0.1911E-12 -0.1642E-13 -0.4831E-15
    -11.283 -0.3652E-11 -0.3139E-12 -0.9267E-14
    -11.221 -0.5706E-10 -0.4908E-11 -0.1456E-12
    -11.159 -0.7284E-09 -0.6269E-10 -0.1875E-11
    -11.096 -0.7587E-08 -0.6538E-09 -0.1980E-10
    -11.034 -0.6442E-07 -0.5561E-08 -0.1716E-09
    -10.971 -0.4454E-06 -0.3856E-07 -0.1225E-08
    -10.909 -0.2504E-05 -0.2178E-06 -0.7221E-08
    -10.847 -0.1144E-04 -0.1002E-05 -0.3532E-07
    -10.784 -0.4235E-04 -0.3747E-05 -0.1439E-06
    -10.722 -0.1265E-03 -0.1136E-04 -0.4881E-06
    -10.659 -0.3002E-03 -0.2755E-04 -0.1362E-05
    -10.597 -0.5419E-03 -0.5136E-04 -0.3020E-05
    -10.535 -0.6275E-03 -0.6336E-04 -0.4847E-05
    -10.472  0.3769E-04 -0.7822E-05 -0.3799E-05
    -10.410  0.2356E-02  0.2039E-03  0.6071E-05
    -10.347  0.6866E-02  0.6286E-03  0.2936E-04
    -10.285  0.1262E-01  0.1178E-02  0.6105E-04
    -10.223  0.1698E-01  0.1599E-02  0.8586E-04
    -10.160  0.1774E-01  0.1690E-02  0.9635E-04
    -10.098  0.1587E-01  0.1575E-02  0.1150E-03
    -10.035  0.1524E-01  0.1663E-02  0.1851E-03
     -9.973  0.1852E-01  0.2212E-02  0.3252E-03
     -9.911  0.2404E-01  0.2992E-02  0.4907E-03
     -9.848  0.2719E-01  0.3434E-02  0.5875E-03
     -9.786  0.2454E-01  0.3114E-02  0.5372E-03
     -9.723  0.1686E-01  0.2132E-02  0.3568E-03
     -9.661  0.8949E-02  0.1148E-02  0.1981E-03
     -9.599  0.6613E-02  0.1007E-02  0.2806E-03
     -9.536  0.1239E-01  0.2097E-02  0.7111E-03
     -9.474  0.2282E-01  0.3890E-02  0.1328E-02
     -9.411  0.3069E-01  0.5255E-02  0.1796E-02
     -9.349  0.3147E-01  0.5463E-02  0.1930E-02
     -9.287  0.2734E-01  0.4772E-02  0.1871E-02
     -9.224  0.2401E-01  0.3893E-02  0.1879E-02
     -9.162  0.2474E-01  0.3140E-02  0.2028E-02
     -9.099  0.2853E-01  0.2445E-02  0.2225E-02
     -9.037  0.3275E-01  0.2002E-02  0.2479E-02
     -8.975  0.3669E-01  0.2490E-02  0.3071E-02
     -8.912  0.4287E-01  0.4510E-02  0.4416E-02
     -8.850  0.5432E-01  0.7755E-02  0.6556E-02
     -8.787  0.6920E-01  0.1079E-01  0.8738E-02
     -8.725  0.7974E-01  0.1198E-01  0.9829E-02
     -8.663  0.7860E-01  0.1086E-01  0.9360E-02
     -8.600  0.6524E-01  0.8403E-02  0.7887E-02
     -8.538  0.4569E-01  0.5919E-02  0.6150E-02
     -8.475  0.2844E-01  0.4080E-02  0.4371E-02
     -8.413  0.2150E-01  0.3280E-02  0.2795E-02
     -8.351  0.2971E-01  0.4243E-02  0.2610E-02
     -8.288  0.5118E-01  0.7616E-02  0.5768E-02
     -8.226  0.7738E-01  0.1290E-01  0.1363E-01
     -8.163  0.9867E-01  0.1808E-01  0.2565E-01
     -8.101  0.1093E+00  0.2056E-01  0.3904E-01
     -8.039  0.1074E+00  0.1889E-01  0.4942E-01
     -7.976  0.9382E-01  0.1396E-01  0.5245E-01
     -7.914  0.7541E-01  0.8765E-02  0.4742E-01
     -7.851  0.6666E-01  0.6794E-02  0.4141E-01
     -7.789  0.8192E-01  0.1023E-01  0.4784E-01
     -7.727  0.1207E+00  0.1858E-01  0.7633E-01
     -7.664  0.1630E+00  0.2850E-01  0.1220E+00
     -7.602  0.1830E+00  0.3548E-01  0.1665E+00
     -7.539  0.1690E+00  0.3645E-01  0.1919E+00
     -7.477  0.1335E+00  0.3219E-01  0.1965E+00
     -7.415  0.1052E+00  0.2758E-01  0.1983E+00
     -7.352  0.1096E+00  0.2816E-01  0.2176E+00
     -7.290  0.1459E+00  0.3462E-01  0.2527E+00
     -7.227  0.1842E+00  0.4144E-01  0.2777E+00
     -7.165  0.1920E+00  0.4251E-01  0.2709E+00
     -7.103  0.1654E+00  0.3791E-01  0.2474E+00
     -7.040  0.1313E+00  0.3357E-01  0.2585E+00
     -6.978  0.1212E+00  0.3508E-01  0.3567E+00
     -6.915  0.1471E+00  0.4324E-01  0.5523E+00
     -6.853  0.1961E+00  0.5453E-01  0.7888E+00
     -6.791  0.2403E+00  0.6371E-01  0.9635E+00