  96  96   1   0
  0.3804114E+02  0.1117059E-08  0.1122876E-08  0.3367404E-08  0.0000000E+00
  1.000000000000000E-004
  CAR 
 unknown system                          
     14.09005068    -11.28818740  301     -1.04318563      1.00000000
    -11.288  0.0000E+00  0.0000E+00
    -11.204  0.0000E+00  0.0000E+00
    -11.119  0.0000E+00  0.0000E+00
    -11.034  0.0000E+00  0.0000E+00
    -10.950 -0.4694E-28 -0.3971E-29
    -10.865 -0.2009E-22 -0.1699E-23
    -10.781 -0.2027E-17 -0.1715E-18
    -10.696 -0.4657E-13 -0.3940E-14
    -10.611 -0.2546E-09 -0.2154E-10
    -10.527 -0.3195E-06 -0.2705E-07
    -10.442 -0.8960E-04 -0.7607E-05
    -10.358 -0.5291E-02 -0.4552E-03
    -10.273 -0.5498E-01 -0.5106E-02
    -10.188  0.2161E-01 -0.3278E-02
    -10.104  0.1317E+01  0.1081E+00
    -10.019  0.5157E+01  0.5444E+00
     -9.935  0.3760E+01  0.8625E+00
     -9.850  0.4234E+01  0.1221E+01
     -9.765  0.7453E+01  0.1851E+01
     -9.681  0.2549E+01  0.2067E+01
     -9.596  0.1923E+01  0.2229E+01
     -9.512  0.7959E+01  0.2903E+01
     -9.427  0.1065E+02  0.3803E+01
     -9.343  0.2492E+01  0.4014E+01
     -9.258  0.1092E+01  0.4106E+01
     -9.173  0.7200E+01  0.4716E+01
     -9.089  0.1304E+02  0.5818E+01
     -9.004  0.1064E+02  0.6718E+01
     -8.920  0.3333E+01  0.7000E+01
     -8.835  0.8672E+01  0.7734E+01
     -8.750  0.1201E+02  0.8750E+01
     -8.666  0.1482E+02  0.1000E+02
     -8.581  0.1539E+02  0.1131E+02
     -8.497  0.8759E+01  0.1205E+02
     -8.412  0.1274E+02  0.1312E+02
     -8.327  0.1384E+02  0.1429E+02
     -8.243  0.1654E+02  0.1569E+02
     -8.158  0.2029E+02  0.1741E+02
     -8.074  0.2212E+02  0.1928E+02
     -7.989  0.2345E+02  0.2126E+02
     -7.904  0.2536E+02  0.2341E+02
     -7.820  0.2879E+02  0.2585E+02
     -7.735  0.3522E+02  0.2883E+02
     -7.651  0.4707E+02  0.3281E+02
     -7.566  0.5107E+02  0.3713E+02
     -7.481  0.5257E+02  0.4157E+02
     -7.397  0.6763E+02  0.4730E+02
     -7.312  0.8117E+02  0.5416E+02
     -7.228  0.8064E+02  0.6098E+02
     -7.143  0.8262E+02  0.6797E+02
     -7.058  0.8915E+02  0.7551E+02
     -6.974  0.9691E+02  0.8371E+02
     -6.889  0.1018E+03  0.9232E+02
     -6.805  0.1068E+03  0.1014E+03
     -6.720  0.1174E+03  0.1113E+03
     -6.636  0.1235E+03  0.1217E+03
     -6.551  0.1278E+03  0.1325E+03
     -6.466  0.1360E+03  0.1441E+03
     -6.382  0.1319E+03  0.1552E+03
     -6.297  0.1244E+03  0.1657E+03
     -6.213  0.1229E+03  0.1761E+03
     -6.128  0.1251E+03  0.1867E+03
     -6.043  0.1218E+03  0.1970E+03
     -5.959  0.1207E+03  0.2072E+03
     -5.874  0.1366E+03  0.2188E+03
     -5.790  0.1471E+03  0.2312E+03
     -5.705  0.1431E+03  0.2433E+03
     -5.620  0.1366E+03  0.2549E+03
     -5.536  0.1364E+03  0.2664E+03
     -5.451  0.1424E+03  0.2785E+03
     -5.367  0.1492E+03  0.2911E+03
     -5.282  0.1547E+03  0.3042E+03
     -5.197  0.1597E+03  0.3177E+03
     -5.113  0.1715E+03  0.3322E+03
     -5.028  0.1773E+03  0.3472E+03
     -4.944  0.1648E+03  0.3611E+03
     -4.859  0.1596E+03  0.3746E+03
     -4.774  0.1628E+03  0.3884E+03
     -4.690  0.1672E+03  0.4025E+03
     -4.605  0.1633E+03  0.4163E+03
     -4.521  0.1571E+03  0.4296E+03
     -4.436  0.1570E+03  0.4429E+03
     -4.351  0.1644E+03  0.4568E+03
     -4.267  0.1665E+03  0.4709E+03
     -4.182  0.1585E+03  0.4843E+03
     -4.098  0.1536E+03  0.4973E+03
     -4.013  0.1540E+03  0.5103E+03
     -3.928  0.1682E+03  0.5246E+03
     -3.844  0.1805E+03  0.5398E+03
     -3.759  0.1953E+03  0.5564E+03
     -3.675  0.2336E+03  0.5761E+03
     -3.590  0.2733E+03  0.5992E+03
     -3.506  0.2807E+03  0.6230E+03
     -3.421  0.2824E+03  0.6469E+03
     -3.336  0.2760E+03  0.6702E+03
     -3.252  0.2756E+03  0.6935E+03
     -3.167  0.3019E+03  0.7191E+03
     -3.083  0.3262E+03  0.7467E+03
     -2.998  0.3401E+03  0.7754E+03
     -2.913  0.3486E+03  0.8049E+03
     -2.829  0.3608E+03  0.8354E+03
     -2.744  0.3759E+03  0.8672E+03
     -2.660  0.4541E+03  0.9057E+03
     -2.575  0.5283E+03  0.9503E+03
     -2.490  0.4292E+03  0.9867E+03
     -2.406  0.2092E+03  0.1004E+04
     -2.321  0.7612E+02  0.1011E+04
     -2.237  0.5223E+02  0.1015E+04
     -2.152  0.4392E+02  0.1019E+04
     -2.067  0.4013E+02  0.1022E+04
     -1.983  0.4525E+02  0.1026E+04
     -1.898  0.4105E+02  0.1030E+04
     -1.814  0.2990E+02  0.1032E+04
     -1.729  0.1925E+02  0.1034E+04
     -1.644  0.2162E+02  0.1036E+04
     -1.560  0.2597E+02  0.1038E+04
     -1.475  0.3636E+02  0.1041E+04
     -1.391  0.3706E+02  0.1044E+04
     -1.306  0.3185E+02  0.1047E+04
     -1.221  0.3700E+02  0.1050E+04
     -1.137  0.3610E+02  0.1053E+04
     -1.052  0.3296E+02  0.1056E+04
     -0.968  0.3213E+02  0.1058E+04
     -0.883  0.2477E+02  0.1061E+04
     -0.799  0.2292E+02  0.1062E+04
     -0.714  0.2517E+02  0.1065E+04
     -0.629  0.2332E+02  0.1067E+04
     -0.545  0.2845E+02  0.1069E+04
     -0.460  0.3439E+02  0.1072E+04
     -0.376  0.3344E+02  0.1075E+04
     -0.291  0.3446E+02  0.1078E+04
     -0.206  0.3284E+02  0.1080E+04
     -0.122  0.3477E+02  0.1083E+04
     -0.037  0.3620E+02  0.1086E+04
      0.047  0.3035E+02  0.1089E+04
      0.132  0.2138E+02  0.1091E+04
      0.217  0.2687E+02  0.1093E+04
      0.301  0.3444E+02  0.1096E+04
      0.386  0.3212E+02  0.1099E+04
      0.470  0.2023E+02  0.1100E+04
      0.555  0.2079E+02  0.1102E+04
      0.640  0.2880E+02  0.1105E+04
      0.724  0.2750E+02  0.1107E+04
      0.809  0.2967E+02  0.1109E+04
      0.893  0.3808E+02  0.1113E+04
      0.978  0.3701E+02  0.1116E+04
      1.063  0.3082E+02  0.1118E+04
      1.147  0.3245E+02  0.1121E+04
      1.232  0.2486E+02  0.1123E+04
      1.316  0.2213E+02  0.1125E+04
      1.401  0.2636E+02  0.1127E+04
      1.486  0.2950E+02  0.1130E+04
      1.570  0.2692E+02  0.1132E+04
      1.655  0.2169E+02  0.1134E+04
      1.739  0.2457E+02  0.1136E+04
      1.824  0.3414E+02  0.1139E+04
      1.908  0.3046E+02  0.1141E+04
      1.993  0.1860E+02  0.1143E+04
      2.078  0.2264E+02  0.1145E+04
      2.162  0.3092E+02  0.1148E+04
      2.247  0.2815E+02  0.1150E+04
      2.331  0.2741E+02  0.1152E+04
      2.416  0.2853E+02  0.1155E+04
      2.501  0.3154E+02  0.1157E+04
      2.585  0.2919E+02  0.1160E+04
      2.670  0.3026E+02  0.1162E+04
      2.754  0.3355E+02  0.1165E+04
      2.839  0.3781E+02  0.1168E+04
      2.924  0.3595E+02  0.1171E+04
      3.008  0.2968E+02  0.1174E+04
      3.093  0.2563E+02  0.1176E+04
      3.177  0.2696E+02  0.1178E+04
      3.262  0.3441E+02  0.1181E+04
      3.347  0.4088E+02  0.1185E+04
      3.431  0.3555E+02  0.1188E+04
      3.516  0.3606E+02  0.1191E+04
      3.600  0.4331E+02  0.1195E+04
      3.685  0.4167E+02  0.1198E+04
      3.770  0.3696E+02  0.1201E+04
      3.854  0.4360E+02  0.1205E+04
      3.939  0.4430E+02  0.1209E+04
      4.023  0.4523E+02  0.1212E+04
      4.108  0.4987E+02  0.1217E+04
      4.193  0.4340E+02  0.1220E+04
      4.277  0.4256E+02  0.1224E+04
      4.362  0.4711E+02  0.1228E+04
      4.446  0.4689E+02  0.1232E+04
      4.531  0.4757E+02  0.1236E+04
      4.616  0.4764E+02  0.1240E+04
      4.700  0.5132E+02  0.1244E+04
      4.785  0.4853E+02  0.1248E+04
      4.869  0.4324E+02  0.1252E+04
      4.954  0.5036E+02  0.1256E+04
      5.038  0.5423E+02  0.1261E+04
      5.123  0.5214E+02  0.1265E+04
      5.208  0.4867E+02  0.1269E+04
      5.292  0.5139E+02  0.1274E+04
      5.377  0.5726E+02  0.1279E+04
      5.461  0.5923E+02  0.1284E+04
      5.546  0.5577E+02  0.1288E+04
      5.631  0.6116E+02  0.1293E+04
      5.715  0.5713E+02  0.1298E+04
      5.800  0.5311E+02  0.1303E+04
      5.884  0.5562E+02  0.1308E+04
      5.969  0.5822E+02  0.1312E+04
      6.054  0.5874E+02  0.1317E+04
      6.138  0.5730E+02  0.1322E+04
      6.223  0.5788E+02  0.1327E+04
      6.307  0.5594E+02  0.1332E+04
      6.392  0.5974E+02  0.1337E+04
      6.477  0.5979E+02  0.1342E+04
      6.561  0.5950E+02  0.1347E+04
      6.646  0.6667E+02  0.1353E+04
      6.730  0.7042E+02  0.1359E+04
      6.815  0.6992E+02  0.1365E+04
      6.900  0.6956E+02  0.1370E+04
      6.984  0.6409E+02  0.1376E+04
      7.069  0.6176E+02  0.1381E+04
      7.153  0.6405E+02  0.1386E+04
      7.238  0.6215E+02  0.1392E+04
      7.323  0.6553E+02  0.1397E+04
      7.407  0.7326E+02  0.1403E+04
      7.492  0.7661E+02  0.1410E+04
      7.576  0.7761E+02  0.1417E+04
      7.661  0.7473E+02  0.1423E+04
      7.745  0.6083E+02  0.1428E+04
      7.830  0.5267E+02  0.1432E+04
      7.915  0.6182E+02  0.1438E+04
      7.999  0.7158E+02  0.1444E+04
      8.084  0.7520E+02  0.1450E+04
      8.168  0.7446E+02  0.1456E+04
      8.253  0.6810E+02  0.1462E+04
      8.338  0.6959E+02  0.1468E+04
      8.422  0.7423E+02  0.1474E+04
      8.507  0.7819E+02  0.1481E+04
      8.591  0.8015E+02  0.1488E+04
      8.676  0.8336E+02  0.1495E+04
      8.761  0.8319E+02  0.1502E+04
      8.845  0.7786E+02  0.1508E+04
      8.930  0.7819E+02  0.1515E+04
      9.014  0.8278E+02  0.1522E+04
      9.099  0.8118E+02  0.1529E+04
      9.184  0.7736E+02  0.1535E+04
      9.268  0.7488E+02  0.1542E+04
      9.353  0.7592E+02  0.1548E+04
      9.437  0.7901E+02  0.1555E+04
      9.522  0.7436E+02  0.1561E+04
      9.607  0.7117E+02  0.1567E+04
      9.691  0.7772E+02  0.1574E+04
      9.776  0.8813E+02  0.1581E+04
      9.860  0.9297E+02  0.1589E+04
      9.945  0.8923E+02  0.1597E+04
     10.030  0.8751E+02  0.1604E+04
     10.114  0.8966E+02  0.1612E+04
     10.199  0.8765E+02  0.1619E+04
     10.283  0.8121E+02  0.1626E+04
     10.368  0.7803E+02  0.1633E+04
     10.453  0.8758E+02  0.1640E+04
     10.537  0.8573E+02  0.1647E+04
     10.622  0.8437E+02  0.1654E+04
     10.706  0.8577E+02  0.1662E+04
     10.791  0.8111E+02  0.1668E+04
     10.875  0.8750E+02  0.1676E+04
     10.960  0.9636E+02  0.1684E+04
     11.045  0.9746E+02  0.1692E+04
     11.129  0.9126E+02  0.1700E+04
     11.214  0.8999E+02  0.1708E+04
     11.298  0.9157E+02  0.1715E+04
     11.383  0.9059E+02  0.1723E+04
     11.468  0.8874E+02  0.1730E+04
     11.552  0.8783E+02  0.1738E+04
     11.637  0.8640E+02  0.1745E+04
     11.721  0.8260E+02  0.1752E+04
     11.806  0.8659E+02  0.1760E+04
     11.891  0.8089E+02  0.1766E+04
     11.975  0.8322E+02  0.1773E+04
     12.060  0.8796E+02  0.1781E+04
     12.144  0.8981E+02  0.1788E+04
     12.229  0.9014E+02  0.1796E+04
     12.314  0.8928E+02  0.1804E+04
     12.398  0.8359E+02  0.1811E+04
     12.483  0.7911E+02  0.1817E+04
     12.567  0.7225E+02  0.1823E+04
     12.652  0.6334E+02  0.1829E+04
     12.737  0.5616E+02  0.1834E+04
     12.821  0.4596E+02  0.1837E+04
     12.906  0.2485E+02  0.1840E+04
     12.990  0.5602E+01  0.1840E+04
     13.075 -0.5215E+00  0.1840E+04
     13.160 -0.2407E+00  0.1840E+04
     13.244 -0.1317E-01  0.1840E+04
     13.329 -0.1630E-03  0.1840E+04
     13.413 -0.4796E-06  0.1840E+04
     13.498 -0.3372E-09  0.1840E+04
     13.582 -0.5676E-13  0.1840E+04
     13.667  0.0000E+00  0.1840E+04
     13.752  0.0000E+00  0.1840E+04
     13.836  0.0000E+00  0.1840E+04
     13.921  0.0000E+00  0.1840E+04
     14.005  0.0000E+00  0.1840E+04
     14.090  0.0000E+00  0.1840E+04
     14.09005068    -11.28818740  301     -1.04318563      1.00000000
    -11.288  0.0000E+00  0.0000E+00  0.0000E+00
    -11.204  0.0000E+00  0.0000E+00  0.0000E+00
    -11.119  0.0000E+00  0.0000E+00  0.0000E+00
    -11.034  0.0000E+00  0.0000E+00  0.0000E+00
    -10.950 -0.2946E-31 -0.3009E-32 -0.5741E-34
    -10.865 -0.1261E-25 -0.1288E-26 -0.2457E-28
    -10.781 -0.1272E-20 -0.1299E-21 -0.2479E-23
    -10.696 -0.2923E-16 -0.2985E-17 -0.5696E-19
    -10.611 -0.1598E-12 -0.1632E-13 -0.3115E-15
    -10.527 -0.2005E-09 -0.2048E-10 -0.3923E-12
    -10.442 -0.5623E-07 -0.5745E-08 -0.1125E-09
    -10.358 -0.3317E-05 -0.3397E-06 -0.7716E-08
    -10.273 -0.3410E-04 -0.3571E-05 -0.1793E-06
    -10.188  0.2029E-04  0.6909E-06 -0.1711E-05
    -10.104  0.8159E-03  0.8582E-04  0.4773E-05
    -10.019  0.3068E-02  0.3467E-03  0.4772E-04
     -9.935  0.2261E-02  0.2550E-03  0.3420E-04
     -9.850  0.2298E-02  0.3237E-03  0.1306E-03
     -9.765  0.3215E-02  0.5403E-03  0.2971E-03
     -9.681  0.8027E-03  0.1760E-03  0.1188E-03
     -9.596  0.1012E-02  0.1640E-03  0.8414E-04
     -9.512  0.4628E-02  0.6235E-03  0.4578E-03
     -9.427  0.7407E-02  0.8560E-03  0.6170E-03
     -9.343  0.2144E-02  0.2085E-03  0.1268E-03
     -9.258 -0.1442E-03  0.8507E-04  0.1453E-03
     -9.173  0.4507E-02  0.7747E-03  0.7296E-03
     -9.089  0.1535E-01  0.1882E-02  0.1202E-02
     -9.004  0.1638E-01  0.1839E-02  0.1023E-02
     -8.920  0.4350E-02  0.4641E-03  0.3967E-03
     -8.835  0.7796E-02  0.9774E-03  0.1161E-02
     -8.750  0.1268E-01  0.1809E-02  0.2041E-02
     -8.666  0.2099E-01  0.2639E-02  0.2547E-02
     -8.581  0.2879E-01  0.3162E-02  0.2447E-02
     -8.497  0.2096E-01  0.2076E-02  0.1457E-02
     -8.412  0.3115E-01  0.2506E-02  0.1947E-02
     -8.327  0.3281E-01  0.2989E-02  0.3039E-02
     -8.243  0.3312E-01  0.4031E-02  0.5346E-02
     -8.158  0.4591E-01  0.5680E-02  0.7546E-02
     -8.074  0.3976E-01  0.4936E-02  0.7319E-02
     -7.989  0.2375E-01  0.3274E-02  0.5837E-02
     -7.904  0.1651E-01  0.3309E-02  0.7598E-02
     -7.820  0.3124E-01  0.4100E-02  0.9678E-02
     -7.735  0.4958E-01  0.4678E-02  0.1187E-01
     -7.651  0.8548E-01  0.6963E-02  0.1944E-01
     -7.566  0.9747E-01  0.7434E-02  0.2465E-01
     -7.481  0.1256E+00  0.8764E-02  0.2645E-01
     -7.397  0.1305E+00  0.8927E-02  0.3028E-01
     -7.312  0.1152E+00  0.7159E-02  0.3371E-01
     -7.228  0.1386E+00  0.7563E-02  0.4565E-01
     -7.143  0.1553E+00  0.9812E-02  0.6953E-01
     -7.058  0.2032E+00  0.1169E-01  0.9848E-01
     -6.974  0.2490E+00  0.1531E-01  0.1246E+00
     -6.889  0.1702E+00  0.1612E-01  0.1214E+00
     -6.805  0.1237E+00  0.1479E-01  0.1223E+00
     -6.720  0.1144E+00  0.1447E-01  0.1738E+00
     -6.636  0.1213E+00  0.1464E-01  0.2331E+00
     -6.551  0.1455E+00  0.1617E-01  0.3042E+00
     -6.466  0.1969E+00  0.1893E-01  0.4480E+00
     -6.382  0.2224E+00  0.1902E-01  0.5245E+00
     -6.297  0.1655E+00  0.1954E-01  0.6048E+00
     -6.213  0.1224E+00  0.2389E-01  0.7605E+00
     -6.128  0.1218E+00  0.2732E-01  0.1065E+01
     -6.043  0.1272E+00  0.2914E-01  0.1486E+01
     -5.959  0.7881E-01  0.3722E-01  0.1796E+01
     -5.874  0.4885E-01  0.5410E-01  0.2927E+01
     -5.790  0.5183E-01  0.5221E-01  0.3644E+01
     -5.705  0.5448E-01  0.3601E-01  0.3043E+01
     -5.620  0.4904E-01  0.2675E-01  0.2513E+01
     -5.536  0.6713E-01  0.2090E-01  0.2441E+01
     -5.451  0.8507E-01  0.2126E-01  0.2987E+01
     -5.367  0.9467E-01  0.2642E-01  0.3809E+01
     -5.282  0.1031E+00  0.2704E-01  0.4756E+01
     -5.197  0.1071E+00  0.2444E-01  0.4724E+01
     -5.113  0.1160E+00  0.2366E-01  0.4662E+01
     -5.028  0.1508E+00  0.2337E-01  0.5252E+01
     -4.944  0.1812E+00  0.2235E-01  0.5729E+01
     -4.859  0.1885E+00  0.2138E-01  0.5400E+01
     -4.774  0.1923E+00  0.2331E-01  0.3968E+01
     -4.690  0.1722E+00  0.2378E-01  0.2682E+01
     -4.605  0.1580E+00  0.2589E-01  0.2060E+01
     -4.521  0.1124E+00  0.2993E-01  0.1765E+01
     -4.436  0.7265E-01  0.3539E-01  0.1581E+01
     -4.351  0.4930E-01  0.4419E-01  0.1515E+01
     -4.267  0.3696E-01  0.4703E-01  0.1583E+01
     -4.182  0.2524E-01  0.4965E-01  0.1334E+01
     -4.098  0.2417E-01  0.6363E-01  0.1270E+01
     -4.013  0.2825E-01  0.7736E-01  0.1246E+01
     -3.928  0.3565E-01  0.9499E-01  0.1089E+01
     -3.844  0.5007E-01  0.1083E+00  0.1025E+01
     -3.759  0.5197E-01  0.1021E+00  0.9060E+00
     -3.675  0.4219E-01  0.9474E-01  0.8703E+00
     -3.590  0.3760E-01  0.7799E-01  0.9704E+00
     -3.506  0.3722E-01  0.7404E-01  0.1005E+01
     -3.421  0.3368E-01  0.7659E-01  0.9587E+00
     -3.336  0.3688E-01  0.7894E-01  0.9184E+00
     -3.252  0.4641E-01  0.8042E-01  0.8965E+00
     -3.167  0.5390E-01  0.7222E-01  0.9632E+00
     -3.083  0.6000E-01  0.6987E-01  0.1049E+01
     -2.998  0.5513E-01  0.6818E-01  0.1119E+01
     -2.913  0.4443E-01  0.6060E-01  0.1223E+01
     -2.829  0.4351E-01  0.6034E-01  0.1335E+01
     -2.744  0.4323E-01  0.5633E-01  0.1256E+01
     -2.660  0.4723E-01  0.4701E-01  0.1421E+01
     -2.575  0.4736E-01  0.3856E-01  0.1632E+01
     -2.490  0.3638E-01  0.2746E-01  0.1481E+01
     -2.406  0.3183E-01  0.1892E-01  0.1172E+01
     -2.321  0.4927E-01  0.2425E-01  0.6130E+00
     -2.237  0.5100E-01  0.3606E-01  0.2031E+00
     -2.152  0.3770E-01  0.2955E-01  0.1435E+00
     -2.067  0.4274E-01  0.1880E-01  0.1085E+00
     -1.983  0.7270E-01  0.2707E-01  0.1160E+00
     -1.898  0.6743E-01  0.3801E-01  0.1567E+00
     -1.814  0.2594E-01  0.3126E-01  0.1335E+00
     -1.729  0.3872E-01  0.2121E-01  0.6894E-01
     -1.644  0.7281E-01  0.3104E-01  0.7130E-01
     -1.560  0.6241E-01  0.4975E-01  0.9463E-01
     -1.475  0.7618E-01  0.6830E-01  0.1358E+00
     -1.391  0.7908E-01  0.6400E-01  0.1392E+00
     -1.306  0.4813E-01  0.5030E-01  0.8719E-01
     -1.221  0.3902E-01  0.4850E-01  0.7843E-01
     -1.137  0.4881E-01  0.5090E-01  0.9814E-01
     -1.052  0.4976E-01  0.7360E-01  0.1108E+00
     -0.968  0.4816E-01  0.8489E-01  0.1010E+00
     -0.883  0.4268E-01  0.5727E-01  0.7740E-01
     -0.799  0.4853E-01  0.6122E-01  0.7648E-01
     -0.714  0.8813E-01  0.7482E-01  0.8461E-01
     -0.629  0.7462E-01  0.6999E-01  0.7997E-01
     -0.545  0.6770E-01  0.1002E+00  0.9392E-01
     -0.460  0.7373E-01  0.1232E+00  0.1102E+00
     -0.376  0.7100E-01  0.9521E-01  0.1225E+00
     -0.291  0.7268E-01  0.7459E-01  0.1754E+00
     -0.206  0.4585E-01  0.6404E-01  0.1451E+00
     -0.122  0.3096E-01  0.7045E-01  0.9848E-01
     -0.037  0.4154E-01  0.9227E-01  0.1072E+00
      0.047  0.5233E-01  0.9726E-01  0.9665E-01
      0.132  0.3682E-01  0.5695E-01  0.7039E-01
      0.217  0.4556E-01  0.6915E-01  0.7844E-01
      0.301  0.4325E-01  0.1029E+00  0.8882E-01
      0.386  0.2831E-01  0.8602E-01  0.7695E-01
      0.470  0.4330E-01  0.6024E-01  0.5238E-01
      0.555  0.5476E-01  0.9470E-01  0.6337E-01
      0.640  0.6124E-01  0.1488E+00  0.8012E-01
      0.724  0.4807E-01  0.1121E+00  0.8807E-01
      0.809  0.5129E-01  0.9830E-01  0.9296E-01
      0.893  0.6945E-01  0.1302E+00  0.1148E+00
      0.978  0.4398E-01  0.1335E+00  0.1070E+00
      1.063  0.2239E-01  0.8456E-01  0.8137E-01
      1.147  0.2881E-01  0.8664E-01  0.6869E-01
      1.232  0.2294E-01  0.6845E-01  0.4482E-01
      1.316  0.2134E-01  0.6498E-01  0.4160E-01
      1.401  0.3286E-01  0.1062E+00  0.5472E-01
      1.486  0.3721E-01  0.1239E+00  0.7131E-01
      1.570  0.3956E-01  0.1048E+00  0.5562E-01
      1.655  0.2947E-01  0.8761E-01  0.4360E-01
      1.739  0.1480E-01  0.7817E-01  0.5719E-01
      1.824  0.2862E-01  0.1088E+00  0.8392E-01
      1.908  0.3470E-01  0.9679E-01  0.6810E-01
      1.993  0.3246E-01  0.6656E-01  0.3963E-01
      2.078  0.6160E-01  0.9677E-01  0.5058E-01
      2.162  0.8446E-01  0.1278E+00  0.6929E-01
      2.247  0.7216E-01  0.9897E-01  0.6768E-01
      2.331  0.4662E-01  0.1047E+00  0.5956E-01
      2.416  0.4685E-01  0.1132E+00  0.5571E-01
      2.501  0.5687E-01  0.1059E+00  0.5998E-01
      2.585  0.3557E-01  0.7847E-01  0.5693E-01
      2.670  0.2290E-01  0.6880E-01  0.5115E-01
      2.754  0.4106E-01  0.8096E-01  0.6097E-01
      2.839  0.3558E-01  0.8472E-01  0.7138E-01
      2.924  0.3006E-01  0.7119E-01  0.6349E-01
      3.008  0.2569E-01  0.5619E-01  0.4695E-01
      3.093  0.3735E-01  0.4241E-01  0.4403E-01
      3.177  0.4507E-01  0.5414E-01  0.5940E-01
      3.262  0.4206E-01  0.7046E-01  0.8059E-01
      3.347  0.6757E-01  0.8555E-01  0.9448E-01
      3.431  0.8063E-01  0.7192E-01  0.8348E-01
      3.516  0.8551E-01  0.7115E-01  0.8715E-01
      3.600  0.9334E-01  0.1029E+00  0.9749E-01
      3.685  0.1016E+00  0.8257E-01  0.8728E-01
      3.770  0.9282E-01  0.5535E-01  0.7906E-01
      3.854  0.9261E-01  0.6820E-01  0.1045E+00
      3.939  0.6450E-01  0.6581E-01  0.1215E+00
      4.023  0.5853E-01  0.5406E-01  0.1062E+00
      4.108  0.7458E-01  0.6348E-01  0.9976E-01
      4.193  0.8297E-01  0.5351E-01  0.8323E-01
      4.277  0.1036E+00  0.5513E-01  0.9693E-01
      4.362  0.1266E+00  0.7791E-01  0.1074E+00
      4.446  0.1254E+00  0.7971E-01  0.8766E-01
      4.531  0.1093E+00  0.7161E-01  0.7846E-01
      4.616  0.1147E+00  0.8484E-01  0.7726E-01
      4.700  0.1022E+00  0.9187E-01  0.8475E-01
      4.785  0.6582E-01  0.8156E-01  0.7727E-01
      4.869  0.4388E-01  0.8768E-01  0.6160E-01
      4.954  0.5406E-01  0.8038E-01  0.5976E-01
      5.038  0.6888E-01  0.6867E-01  0.6896E-01
      5.123  0.5003E-01  0.7009E-01  0.7054E-01
      5.208  0.3457E-01  0.7065E-01  0.6813E-01
      5.292  0.4743E-01  0.1075E+00  0.7198E-01
      5.377  0.6394E-01  0.1181E+00  0.7134E-01
      5.461  0.6415E-01  0.1085E+00  0.7312E-01
      5.546  0.5766E-01  0.1062E+00  0.7876E-01
      5.631  0.5655E-01  0.1197E+00  0.8113E-01
      5.715  0.4723E-01  0.1014E+00  0.7134E-01
      5.800  0.4350E-01  0.9040E-01  0.6430E-01
      5.884  0.5003E-01  0.9863E-01  0.6826E-01
      5.969  0.5549E-01  0.1043E+00  0.7492E-01
      6.054  0.5923E-01  0.1244E+00  0.7935E-01
      6.138  0.5954E-01  0.1137E+00  0.7293E-01
      6.223  0.5462E-01  0.1052E+00  0.6741E-01
      6.307  0.5248E-01  0.1042E+00  0.6951E-01
      6.392  0.5499E-01  0.1106E+00  0.6632E-01
      6.477  0.4423E-01  0.9654E-01  0.6099E-01
      6.561  0.4707E-01  0.9744E-01  0.5632E-01
      6.646  0.5140E-01  0.1139E+00  0.6139E-01
      6.730  0.5779E-01  0.1291E+00  0.7207E-01
      6.815  0.6607E-01  0.1101E+00  0.7619E-01
      6.900  0.6029E-01  0.9701E-01  0.7858E-01
      6.984  0.5085E-01  0.1052E+00  0.6865E-01
      7.069  0.4780E-01  0.1071E+00  0.5833E-01
      7.153  0.4991E-01  0.1141E+00  0.6528E-01
      7.238  0.5036E-01  0.1124E+00  0.7261E-01
      7.323  0.5366E-01  0.9940E-01  0.8179E-01
      7.407  0.5855E-01  0.1011E+00  0.8900E-01
      7.492  0.5142E-01  0.1014E+00  0.8926E-01
      7.576  0.4594E-01  0.1002E+00  0.9038E-01
      7.661  0.5799E-01  0.1104E+00  0.8924E-01
      7.745  0.6135E-01  0.1015E+00  0.7443E-01
      7.830  0.5147E-01  0.8270E-01  0.6482E-01
      7.915  0.6370E-01  0.1089E+00  0.7957E-01
      7.999  0.6444E-01  0.1318E+00  0.9376E-01
      8.084  0.5739E-01  0.1240E+00  0.8697E-01
      8.168  0.4853E-01  0.1159E+00  0.8359E-01
      8.253  0.3487E-01  0.1029E+00  0.7605E-01
      8.338  0.3110E-01  0.1060E+00  0.7653E-01
      8.422  0.3787E-01  0.1104E+00  0.8201E-01
      8.507  0.4609E-01  0.1019E+00  0.8544E-01
      8.591  0.4696E-01  0.1036E+00  0.7769E-01
      8.676  0.5162E-01  0.1062E+00  0.7741E-01
      8.761  0.4949E-01  0.9608E-01  0.8310E-01
      8.845  0.4073E-01  0.9378E-01  0.8668E-01
      8.930  0.4653E-01  0.1314E+00  0.9939E-01
      9.014  0.5700E-01  0.1495E+00  0.9538E-01
      9.099  0.5664E-01  0.1389E+00  0.9411E-01
      9.184  0.5236E-01  0.1382E+00  0.9207E-01
      9.268  0.4495E-01  0.1360E+00  0.8524E-01
      9.353  0.3966E-01  0.1113E+00  0.8579E-01
      9.437  0.4159E-01  0.1029E+00  0.8663E-01
      9.522  0.3994E-01  0.1155E+00  0.8089E-01
      9.607  0.3431E-01  0.1257E+00  0.8351E-01
      9.691  0.3749E-01  0.1311E+00  0.8247E-01
      9.776  0.4287E-01  0.1404E+00  0.8487E-01
      9.860  0.4121E-01  0.1387E+00  0.8523E-01
      9.945  0.4147E-01  0.1191E+00  0.8089E-01
     10.030  0.4031E-01  0.1134E+00  0.9132E-01
     10.114  0.4137E-01  0.1273E+00  0.9676E-01
     10.199  0.4456E-01  0.1263E+00  0.9587E-01
     10.283  0.4168E-01  0.1278E+00  0.8392E-01
     10.368  0.3764E-01  0.1436E+00  0.7449E-01
     10.453  0.3935E-01  0.1649E+00  0.8936E-01
     10.537  0.3784E-01  0.1473E+00  0.8624E-01
     10.622  0.4206E-01  0.1426E+00  0.7721E-01
     10.706  0.3398E-01  0.1379E+00  0.7745E-01
     10.791  0.2283E-01  0.1444E+00  0.7605E-01
     10.875  0.3310E-01  0.1585E+00  0.8287E-01
     10.960  0.4019E-01  0.1429E+00  0.9144E-01
     11.045  0.3673E-01  0.1440E+00  0.9312E-01
     11.129  0.3226E-01  0.1533E+00  0.8404E-01
     11.214  0.3193E-01  0.1450E+00  0.8192E-01
     11.298  0.3221E-01  0.1412E+00  0.8372E-01
     11.383  0.2839E-01  0.1382E+00  0.7731E-01
     11.468  0.3181E-01  0.1339E+00  0.7130E-01
     11.552  0.3317E-01  0.1391E+00  0.7949E-01
     11.637  0.3227E-01  0.1544E+00  0.8065E-01
     11.721  0.2561E-01  0.1454E+00  0.7608E-01
     11.806  0.2394E-01  0.1404E+00  0.8649E-01
     11.891  0.2386E-01  0.1352E+00  0.7799E-01
     11.975  0.2324E-01  0.1584E+00  0.7871E-01
     12.060  0.2874E-01  0.1658E+00  0.9465E-01
     12.144  0.3042E-01  0.1480E+00  0.9530E-01
     12.229  0.3042E-01  0.1388E+00  0.8373E-01
     12.314  0.3321E-01  0.1411E+00  0.8169E-01
     12.398  0.2778E-01  0.1313E+00  0.7394E-01
     12.483  0.2619E-01  0.1210E+00  0.7546E-01
     12.567  0.2280E-01  0.1161E+00  0.6645E-01
     12.652  0.1783E-01  0.1108E+00  0.5636E-01
     12.737  0.1221E-01  0.9869E-01  0.5294E-01
     12.821  0.1013E-01  0.7325E-01  0.4080E-01
     12.906  0.6156E-02  0.4032E-01  0.2062E-01
     12.990  0.1288E-02  0.1205E-01  0.4004E-02
     13.075 -0.1364E-03 -0.5416E-03 -0.5420E-03
     13.160 -0.5528E-04 -0.5017E-03 -0.1768E-03
     13.244 -0.2920E-05 -0.2926E-04 -0.8499E-05
     13.329 -0.3505E-07 -0.3614E-06 -0.9548E-07
     13.413 -0.1001E-09 -0.1041E-08 -0.2602E-09
     13.498 -0.6840E-13 -0.7146E-12 -0.1721E-12
     13.582 -0.1120E-16 -0.1179E-15 -0.2754E-16
     13.667  0.0000E+00  0.0000E+00  0.0000E+00
     13.752  0.0000E+00  0.0000E+00  0.0000E+00
     13.836  0.0000E+00  0.0000E+00  0.0000E+00
     13.921  0.0000E+00  0.0000E+00  0.0000E+00
     14.005  0.0000E+00  0.0000E+00  0.0000E+00
     14.090  0.0000E+00  0.0000E+00  0.0000E+00
     14.09005068    -11.28818740  301     -1.04318563      1.00000000
    -11.288  0.0000E+00  0.0000E+00  0.0000E+00
    -11.204  0.0000E+00  0.0000E+00  0.0000E+00
    -11.119  0.0000E+00  0.0000E+00  0.0000E+00
    -11.034  0.0000E+00  0.0000E+00  0.0000E+00
    -10.950 -0.3399E-31 -0.5251E-32 -0.1941E-32
    -10.865 -0.1455E-25 -0.2247E-26 -0.8305E-27
    -10.781 -0.1468E-20 -0.2267E-21 -0.8381E-22
    -10.696 -0.3372E-16 -0.5209E-17 -0.1926E-17
    -10.611 -0.1843E-12 -0.2848E-13 -0.1053E-13
    -10.527 -0.2313E-09 -0.3573E-10 -0.1321E-10
    -10.442 -0.6486E-07 -0.1002E-07 -0.3707E-08
    -10.358 -0.3820E-05 -0.5911E-06 -0.2197E-06
    -10.273 -0.3883E-04 -0.6079E-05 -0.2361E-05
    -10.188  0.3045E-04  0.3488E-05 -0.4906E-06
    -10.104  0.9257E-03  0.1453E-03  0.5697E-04
    -10.019  0.3400E-02  0.5541E-03  0.2482E-03
     -9.935  0.2489E-02  0.4053E-03  0.1804E-03
     -9.850  0.1518E-02  0.3179E-03  0.2196E-03
     -9.765  0.2147E-02  0.5187E-03  0.4564E-03
     -9.681  0.6287E-03  0.1752E-03  0.1773E-03
     -9.596  0.1727E-02  0.2694E-03  0.1584E-03
     -9.512  0.7078E-02  0.1141E-02  0.8261E-03
     -9.427  0.1078E-01  0.1664E-02  0.1153E-02
     -9.343  0.2779E-02  0.3844E-03  0.2128E-03
     -9.258  0.2001E-02  0.4395E-03  0.4604E-03
     -9.173  0.1319E-01  0.2509E-02  0.2366E-02
     -9.089  0.2981E-01  0.4978E-02  0.4265E-02
     -9.004  0.3279E-01  0.5121E-02  0.4080E-02
     -8.920  0.1176E-01  0.1832E-02  0.1632E-02
     -8.835  0.2536E-01  0.4181E-02  0.4292E-02
     -8.750  0.3815E-01  0.6263E-02  0.6540E-02
     -8.666  0.3974E-01  0.6417E-02  0.6701E-02
     -8.581  0.4034E-01  0.6344E-02  0.6431E-02
     -8.497  0.2829E-01  0.4119E-02  0.4100E-02
     -8.412  0.3437E-01  0.4698E-02  0.4710E-02
     -8.327  0.4242E-01  0.6289E-02  0.7472E-02
     -8.243  0.5821E-01  0.9491E-02  0.1399E-01
     -8.158  0.8247E-01  0.1275E-01  0.1832E-01
     -8.074  0.6319E-01  0.1028E-01  0.1682E-01
     -7.989  0.4270E-01  0.7468E-02  0.1554E-01
     -7.904  0.5092E-01  0.9172E-02  0.2120E-01
     -7.820  0.6187E-01  0.1080E-01  0.2571E-01
     -7.735  0.6174E-01  0.9552E-02  0.2688E-01
     -7.651  0.8838E-01  0.1325E-01  0.4548E-01
     -7.566  0.1110E+00  0.1551E-01  0.5332E-01
     -7.481  0.1291E+00  0.1842E-01  0.6016E-01
     -7.397  0.1078E+00  0.1863E-01  0.7828E-01
     -7.312  0.7404E-01  0.1622E-01  0.1051E+00
     -7.228  0.8483E-01  0.2043E-01  0.1601E+00
     -7.143  0.1376E+00  0.3161E-01  0.2352E+00
     -7.058  0.1787E+00  0.4249E-01  0.3611E+00
     -6.974  0.2223E+00  0.4847E-01  0.5066E+00
     -6.889  0.2168E+00  0.5208E-01  0.6123E+00
     -6.805  0.1798E+00  0.4769E-01  0.5611E+00
     -6.720  0.1405E+00  0.4135E-01  0.6133E+00
     -6.636  0.1233E+00  0.4014E-01  0.7319E+00
     -6.551  0.1556E+00  0.4301E-01  0.8314E+00
     -6.466  0.1533E+00  0.4023E-01  0.9864E+00
     -6.382  0.1195E+00  0.3537E-01  0.1059E+01
     -6.297  0.1116E+00  0.3616E-01  0.1051E+01
     -6.213  0.1243E+00  0.3562E-01  0.1067E+01
     -6.128  0.1213E+00  0.3545E-01  0.1179E+01
     -6.043  0.1025E+00  0.3534E-01  0.1528E+01
     -5.959  0.1002E+00  0.3225E-01  0.1923E+01
     -5.874  0.1318E+00  0.3724E-01  0.2718E+01
     -5.790  0.1399E+00  0.4052E-01  0.2830E+01
     -5.705  0.8022E-01  0.3322E-01  0.2043E+01
     -5.620  0.4452E-01  0.2538E-01  0.1670E+01
     -5.536  0.4105E-01  0.2035E-01  0.1535E+01
     -5.451  0.4285E-01  0.2284E-01  0.1439E+01
     -5.367  0.5141E-01  0.2896E-01  0.1438E+01
     -5.282  0.5279E-01  0.3658E-01  0.1701E+01
     -5.197  0.4199E-01  0.3596E-01  0.1584E+01
     -5.113  0.3107E-01  0.3066E-01  0.1283E+01
     -5.028  0.2440E-01  0.2654E-01  0.1107E+01
     -4.944  0.1927E-01  0.2333E-01  0.1151E+01
     -4.859  0.1688E-01  0.1771E-01  0.1342E+01
     -4.774  0.1360E-01  0.1745E-01  0.1435E+01
     -4.690  0.1804E-01  0.1618E-01  0.1634E+01
     -4.605  0.2229E-01  0.1273E-01  0.2012E+01
     -4.521  0.2190E-01  0.1068E-01  0.2381E+01
     -4.436  0.2702E-01  0.1018E-01  0.3203E+01
     -4.351  0.4535E-01  0.1436E-01  0.4453E+01
     -4.267  0.5369E-01  0.1774E-01  0.4791E+01
     -4.182  0.6109E-01  0.1794E-01  0.3998E+01
     -4.098  0.8831E-01  0.2074E-01  0.3918E+01
     -4.013  0.9204E-01  0.1911E-01  0.3939E+01
     -3.928  0.9507E-01  0.1502E-01  0.3697E+01
     -3.844  0.9298E-01  0.1374E-01  0.3279E+01
     -3.759  0.8991E-01  0.1906E-01  0.2494E+01