  96  96   1   0
  0.4019285E+02  0.1179300E-08  0.1179300E-08  0.3203619E-08  0.0000000E+00
  1.000000000000000E-004
  CAR 
 unknown system                          
     14.68980089    -10.74019030  301     -0.57342908      1.00000000
    -10.740  0.0000E+00  0.0000E+00
    -10.655  0.0000E+00  0.0000E+00
    -10.571  0.0000E+00  0.0000E+00
    -10.486  0.0000E+00  0.0000E+00
    -10.401 -0.3579E-28 -0.3034E-29
    -10.316 -0.1615E-22 -0.1369E-23
    -10.232 -0.1709E-17 -0.1449E-18
    -10.147 -0.4094E-13 -0.3470E-14
    -10.062 -0.2320E-09 -0.1967E-10
     -9.977 -0.3000E-06 -0.2545E-07
     -9.893 -0.8611E-04 -0.7325E-05
     -9.808 -0.5141E-02 -0.4431E-03
     -9.723 -0.5143E-01 -0.4803E-02
     -9.638  0.4478E-01 -0.1007E-02
     -9.553  0.1137E+01  0.9534E-01
     -9.469  0.4921E+01  0.5124E+00
     -9.384  0.4027E+01  0.8538E+00
     -9.299  0.1270E+01  0.9615E+00
     -9.214  0.5932E+01  0.1464E+01
     -9.130  0.7274E+01  0.2081E+01
     -9.045  0.3566E+01  0.2383E+01
     -8.960  0.1999E+00  0.2400E+01
     -8.875  0.6709E+01  0.2969E+01
     -8.791  0.1589E+02  0.4316E+01
     -8.706  0.6596E+01  0.4875E+01
     -8.621  0.9867E+01  0.5712E+01
     -8.536  0.1160E+02  0.6695E+01
     -8.451  0.3413E+01  0.6984E+01
     -8.367  0.7514E+00  0.7048E+01
     -8.282  0.1416E+02  0.8248E+01
     -8.197  0.2435E+02  0.1031E+02
     -8.112  0.8955E+01  0.1107E+02
     -8.028  0.1379E+02  0.1224E+02
     -7.943  0.1002E+02  0.1309E+02
     -7.858  0.1948E+01  0.1325E+02
     -7.773  0.1772E+02  0.1476E+02
     -7.689  0.3724E+02  0.1791E+02
     -7.604  0.2194E+02  0.1977E+02
     -7.519  0.1166E+02  0.2076E+02
     -7.434  0.2073E+02  0.2252E+02
     -7.350  0.1427E+02  0.2373E+02
     -7.265  0.3991E+02  0.2711E+02
     -7.180  0.7825E+02  0.3374E+02
     -7.095  0.6269E+02  0.3906E+02
     -7.010  0.4055E+02  0.4249E+02
     -6.926  0.8507E+02  0.4970E+02
     -6.841  0.1076E+03  0.5883E+02
     -6.756  0.1121E+03  0.6833E+02
     -6.671  0.1371E+03  0.7995E+02
     -6.587  0.1576E+03  0.9332E+02
     -6.502  0.1683E+03  0.1076E+03
     -6.417  0.1414E+03  0.1196E+03
     -6.332  0.1256E+03  0.1302E+03
     -6.248  0.1923E+03  0.1465E+03
     -6.163  0.2294E+03  0.1660E+03
     -6.078  0.1795E+03  0.1812E+03
     -5.993  0.1664E+03  0.1953E+03
     -5.908  0.1482E+03  0.2078E+03
     -5.824  0.1246E+03  0.2184E+03
     -5.739  0.1010E+03  0.2270E+03
     -5.654  0.1400E+03  0.2388E+03
     -5.569  0.1900E+03  0.2549E+03
     -5.485  0.1635E+03  0.2688E+03
     -5.400  0.1823E+03  0.2843E+03
     -5.315  0.2152E+03  0.3025E+03
     -5.230  0.2052E+03  0.3199E+03
     -5.146  0.1927E+03  0.3362E+03
     -5.061  0.1841E+03  0.3518E+03
     -4.976  0.1985E+03  0.3687E+03
     -4.891  0.2591E+03  0.3906E+03
     -4.807  0.2822E+03  0.4146E+03
     -4.722  0.3005E+03  0.4400E+03
     -4.637  0.3144E+03  0.4667E+03
     -4.552  0.2645E+03  0.4891E+03
     -4.467  0.2355E+03  0.5091E+03
     -4.383  0.2617E+03  0.5312E+03
     -4.298  0.3004E+03  0.5567E+03
     -4.213  0.2159E+03  0.5750E+03
     -4.128  0.1389E+03  0.5868E+03
     -4.044  0.1767E+03  0.6018E+03
     -3.959  0.1822E+03  0.6172E+03
     -3.874  0.2242E+03  0.6362E+03
     -3.789  0.2945E+03  0.6612E+03
     -3.705  0.2258E+03  0.6803E+03
     -3.620  0.1891E+03  0.6964E+03
     -3.535  0.2360E+03  0.7164E+03
     -3.450  0.2238E+03  0.7353E+03
     -3.365  0.1990E+03  0.7522E+03
     -3.281  0.2281E+03  0.7715E+03
     -3.196  0.2502E+03  0.7927E+03
     -3.111  0.2055E+03  0.8102E+03
     -3.026  0.1722E+03  0.8248E+03
     -2.942  0.2390E+03  0.8450E+03
     -2.857  0.2507E+03  0.8663E+03
     -2.772  0.2186E+03  0.8848E+03
     -2.687  0.2704E+03  0.9077E+03
     -2.603  0.3101E+03  0.9340E+03
     -2.518  0.3161E+03  0.9608E+03
     -2.433  0.2581E+03  0.9827E+03
     -2.348  0.1812E+03  0.9980E+03
     -2.264  0.9612E+02  0.1006E+04
     -2.179  0.5797E+02  0.1011E+04
     -2.094  0.4591E+02  0.1015E+04
     -2.009  0.2052E+02  0.1017E+04
     -1.924  0.6220E+01  0.1017E+04
     -1.840  0.2355E+02  0.1019E+04
     -1.755  0.4367E+02  0.1023E+04
     -1.670  0.3424E+02  0.1026E+04
     -1.585  0.4140E+02  0.1029E+04
     -1.501  0.3691E+02  0.1032E+04
     -1.416  0.4917E+01  0.1033E+04
     -1.331  0.1703E+01  0.1033E+04
     -1.246  0.2106E+02  0.1035E+04
     -1.162  0.6395E+02  0.1040E+04
     -1.077  0.4092E+02  0.1044E+04
     -0.992  0.1612E+02  0.1045E+04
     -0.907  0.1743E+02  0.1047E+04
     -0.822  0.4462E+02  0.1050E+04
     -0.738  0.3335E+02  0.1053E+04
     -0.653  0.4734E+01  0.1054E+04
     -0.568  0.3141E+02  0.1056E+04
     -0.483  0.4647E+02  0.1060E+04
     -0.399  0.1791E+02  0.1062E+04
     -0.314  0.2299E+02  0.1064E+04
     -0.229  0.4430E+02  0.1067E+04
     -0.144  0.1755E+02  0.1069E+04
     -0.060  0.2022E+02  0.1071E+04
      0.025  0.4648E+02  0.1075E+04
      0.110  0.5079E+02  0.1079E+04
      0.195  0.3469E+02  0.1082E+04
      0.279  0.3104E+02  0.1084E+04
      0.364  0.1568E+02  0.1086E+04
      0.449  0.1490E+02  0.1087E+04
      0.534  0.2626E+02  0.1089E+04
      0.619  0.3161E+02  0.1092E+04
      0.703  0.3838E+02  0.1095E+04
      0.788  0.2632E+02  0.1097E+04
      0.873  0.2234E+02  0.1099E+04
      0.958  0.3821E+02  0.1103E+04
      1.042  0.4136E+02  0.1106E+04
      1.127  0.2830E+02  0.1108E+04
      1.212  0.1758E+02  0.1110E+04
      1.297  0.4257E+02  0.1114E+04
      1.381  0.6239E+02  0.1119E+04
      1.466  0.2524E+02  0.1121E+04
      1.551  0.1062E+02  0.1122E+04
      1.636  0.2092E+02  0.1124E+04
      1.721  0.3087E+02  0.1126E+04
      1.805  0.2510E+02  0.1128E+04
      1.890  0.2056E+02  0.1130E+04
      1.975  0.8507E+01  0.1131E+04
      2.060  0.1477E+02  0.1132E+04
      2.144  0.4785E+02  0.1136E+04
      2.229  0.3976E+02  0.1140E+04
      2.314  0.3308E+02  0.1142E+04
      2.399  0.3956E+02  0.1146E+04
      2.483  0.3069E+02  0.1148E+04
      2.568  0.3377E+02  0.1151E+04
      2.653  0.3072E+02  0.1154E+04
      2.738  0.4339E+02  0.1157E+04
      2.822  0.2135E+02  0.1159E+04
      2.907  0.1289E+02  0.1160E+04
      2.992  0.1806E+02  0.1162E+04
      3.077  0.2759E+02  0.1164E+04
      3.162  0.3764E+02  0.1167E+04
      3.246  0.3706E+02  0.1171E+04
      3.331  0.4098E+02  0.1174E+04
      3.416  0.3376E+02  0.1177E+04
      3.501  0.4139E+02  0.1180E+04
      3.585  0.4872E+02  0.1185E+04
      3.670  0.3986E+02  0.1188E+04
      3.755  0.2670E+02  0.1190E+04
      3.840  0.3529E+02  0.1193E+04
      3.924  0.3319E+02  0.1196E+04
      4.009  0.1804E+02  0.1197E+04
      4.094  0.3564E+02  0.1201E+04
      4.179  0.5786E+02  0.1205E+04
      4.264  0.5583E+02  0.1210E+04
      4.348  0.4300E+02  0.1214E+04
      4.433  0.3374E+02  0.1217E+04
      4.518  0.3893E+02  0.1220E+04
      4.603  0.3740E+02  0.1223E+04
      4.687  0.4308E+02  0.1227E+04
      4.772  0.3046E+02  0.1229E+04
      4.857  0.4125E+02  0.1233E+04
      4.942  0.5334E+02  0.1237E+04
      5.026  0.6156E+02  0.1243E+04
      5.111  0.3196E+02  0.1245E+04
      5.196  0.3269E+02  0.1248E+04
      5.281  0.7065E+02  0.1254E+04
      5.365  0.7978E+02  0.1261E+04
      5.450  0.6189E+02  0.1266E+04
      5.535  0.3854E+02  0.1269E+04
      5.620  0.3401E+02  0.1272E+04
      5.705  0.3927E+02  0.1276E+04
      5.789  0.3116E+02  0.1278E+04
      5.874  0.4192E+02  0.1282E+04
      5.959  0.7305E+02  0.1288E+04
      6.044  0.7978E+02  0.1295E+04
      6.128  0.4065E+02  0.1298E+04
      6.213  0.6181E+02  0.1303E+04
      6.298  0.5586E+02  0.1308E+04
      6.383  0.3561E+02  0.1311E+04
      6.467  0.5628E+02  0.1316E+04
      6.552  0.8836E+02  0.1323E+04
      6.637  0.7695E+02  0.1330E+04
      6.722  0.4024E+02  0.1333E+04
      6.807  0.2154E+02  0.1335E+04
      6.891  0.2542E+02  0.1337E+04
      6.976  0.3308E+02  0.1340E+04
      7.061  0.8344E+02  0.1347E+04
      7.146  0.9058E+02  0.1355E+04
      7.230  0.5863E+02  0.1360E+04
      7.315  0.6920E+02  0.1366E+04
      7.400  0.4746E+02  0.1370E+04
      7.485  0.4885E+02  0.1374E+04
      7.569  0.9091E+02  0.1382E+04
      7.654  0.8630E+02  0.1389E+04
      7.739  0.4175E+02  0.1392E+04
      7.824  0.3204E+02  0.1395E+04
      7.908  0.7038E+02  0.1401E+04
      7.993  0.7073E+02  0.1407E+04
      8.078  0.8211E+02  0.1414E+04
      8.163  0.8966E+02  0.1422E+04
      8.248  0.6031E+02  0.1427E+04
      8.332  0.4193E+02  0.1430E+04
      8.417  0.4313E+02  0.1434E+04
      8.502  0.7812E+02  0.1441E+04
      8.587  0.1068E+03  0.1450E+04
      8.671  0.8651E+02  0.1457E+04
      8.756  0.3346E+02  0.1460E+04
      8.841  0.6192E+02  0.1465E+04
      8.926  0.7211E+02  0.1471E+04
      9.010  0.4803E+02  0.1475E+04
      9.095  0.4643E+02  0.1479E+04
      9.180  0.1181E+03  0.1489E+04
      9.265  0.1397E+03  0.1501E+04
      9.350  0.7965E+02  0.1508E+04
      9.434  0.7370E+02  0.1514E+04
      9.519  0.8031E+02  0.1521E+04
      9.604  0.5762E+02  0.1526E+04
      9.689  0.3178E+02  0.1528E+04
      9.773  0.4111E+02  0.1532E+04
      9.858  0.8397E+02  0.1539E+04
      9.943  0.8836E+02  0.1547E+04
     10.028  0.9479E+02  0.1555E+04
     10.112  0.1127E+03  0.1564E+04
     10.197  0.1011E+03  0.1573E+04
     10.282  0.1015E+03  0.1581E+04
     10.367  0.1157E+03  0.1591E+04
     10.451  0.1148E+03  0.1601E+04
     10.536  0.8694E+02  0.1608E+04
     10.621  0.6334E+02  0.1614E+04
     10.706  0.6997E+02  0.1620E+04
     10.791  0.9410E+02  0.1627E+04
     10.875  0.7211E+02  0.1634E+04
     10.960  0.6338E+02  0.1639E+04
     11.045  0.6448E+02  0.1644E+04
     11.130  0.7782E+02  0.1651E+04
     11.214  0.1045E+03  0.1660E+04
     11.299  0.8042E+02  0.1667E+04
     11.384  0.6299E+02  0.1672E+04
     11.469  0.9745E+02  0.1680E+04
     11.553  0.1128E+03  0.1690E+04
     11.638  0.1199E+03  0.1700E+04
     11.723  0.1135E+03  0.1710E+04
     11.808  0.1003E+03  0.1718E+04
     11.893  0.5569E+02  0.1723E+04
     11.977  0.6293E+02  0.1728E+04
     12.062  0.7102E+02  0.1734E+04
     12.147  0.6631E+02  0.1740E+04
     12.232  0.8186E+02  0.1747E+04
     12.316  0.1149E+03  0.1757E+04
     12.401  0.1029E+03  0.1765E+04
     12.486  0.1424E+03  0.1777E+04
     12.571  0.8913E+02  0.1785E+04
     12.655  0.5136E+02  0.1789E+04
     12.740  0.8947E+02  0.1797E+04
     12.825  0.9430E+02  0.1805E+04
     12.910  0.8101E+02  0.1812E+04
     12.994  0.7645E+02  0.1818E+04
     13.079  0.4864E+02  0.1822E+04
     13.164  0.4129E+02  0.1826E+04
     13.249  0.7035E+02  0.1832E+04
     13.334  0.6346E+02  0.1837E+04
     13.418  0.2896E+02  0.1840E+04
     13.503  0.4788E+01  0.1840E+04
     13.588 -0.3671E-01  0.1840E+04
     13.673  0.1235E-01  0.1840E+04
     13.757 -0.4932E-01  0.1840E+04
     13.842 -0.5111E-02  0.1840E+04
     13.927 -0.8605E-04  0.1840E+04
     14.012 -0.3000E-06  0.1840E+04
     14.096 -0.2320E-09  0.1840E+04
     14.181 -0.4093E-13  0.1840E+04
     14.266  0.0000E+00  0.1840E+04
     14.351  0.0000E+00  0.1840E+04
     14.436  0.0000E+00  0.1840E+04
     14.520  0.0000E+00  0.1840E+04
     14.605  0.0000E+00  0.1840E+04
     14.690  0.0000E+00  0.1840E+04
     14.68980089    -10.74019030  301     -0.57342908      1.00000000
    -10.740  0.0000E+00  0.0000E+00  0.0000E+00
    -10.655  0.0000E+00  0.0000E+00  0.0000E+00
    -10.571  0.0000E+00  0.0000E+00  0.0000E+00
    -10.486  0.0000E+00  0.0000E+00  0.0000E+00
    -10.401 -0.4195E-31 -0.4049E-32 -0.2055E-34
    -10.316 -0.1893E-25 -0.1828E-26 -0.9277E-29
    -10.232 -0.2004E-20 -0.1934E-21 -0.9817E-24
    -10.147 -0.4798E-16 -0.4631E-17 -0.2351E-19
    -10.062 -0.2720E-12 -0.2625E-13 -0.1333E-15
     -9.977 -0.3516E-09 -0.3394E-10 -0.1730E-12
     -9.893 -0.1009E-06 -0.9743E-08 -0.5091E-10
     -9.808 -0.6024E-05 -0.5824E-06 -0.3658E-08
     -9.723 -0.6013E-04 -0.5902E-05 -0.1021E-06
     -9.638  0.5520E-04  0.3559E-05 -0.1288E-05
     -9.553  0.1329E-02  0.1304E-03  0.2206E-05
     -9.469  0.5694E-02  0.5975E-03  0.3830E-04
     -9.384  0.4663E-02  0.4883E-03  0.2947E-04
     -9.299  0.1429E-02  0.1741E-03  0.3175E-04
     -9.214  0.6621E-02  0.8333E-03  0.1765E-03
     -9.130  0.7923E-02  0.1048E-02  0.2675E-03
     -9.045  0.3863E-02  0.5189E-03  0.1442E-03
     -8.960  0.2851E-02  0.1258E-03 -0.2909E-04
     -8.875  0.2103E-01  0.1768E-02  0.3596E-03
     -8.791  0.3205E-01  0.3386E-02  0.1106E-02
     -8.706  0.1100E-01  0.1368E-02  0.5406E-03
     -8.621  0.2778E-01  0.3003E-02  0.1024E-02
     -8.536  0.3546E-01  0.3856E-02  0.1270E-02
     -8.451  0.1512E-01  0.1525E-02  0.3453E-03
     -8.367 -0.1104E-02 -0.3141E-04  0.1135E-03
     -8.282  0.2387E-01  0.3971E-02  0.2997E-02
     -8.197  0.5604E-01  0.8287E-02  0.5477E-02
     -8.112  0.3055E-01  0.3343E-02  0.2638E-02
     -8.028  0.5458E-01  0.4641E-02  0.5537E-02
     -7.943  0.3067E-01  0.2640E-02  0.3687E-02
     -7.858  0.1305E-01  0.6112E-03  0.7165E-03
     -7.773  0.7219E-01  0.7998E-02  0.8831E-02
     -7.689  0.1004E+00  0.1478E-01  0.1900E-01
     -7.604  0.3394E-01  0.6467E-02  0.1134E-01
     -7.519  0.2236E-01  0.4088E-02  0.9446E-02
     -7.434  0.7946E-01  0.7415E-02  0.1442E-01
     -7.350  0.6724E-01  0.5333E-02  0.9891E-02
     -7.265  0.8453E-01  0.1544E-01  0.4392E-01
     -7.180  0.1232E+00  0.1897E-01  0.1077E+00
     -7.095  0.1050E+00  0.1003E-01  0.1079E+00
     -7.010  0.1048E+00  0.1269E-01  0.5830E-01
     -6.926  0.1488E+00  0.2043E-01  0.1534E+00
     -6.841  0.1645E+00  0.2595E-01  0.2226E+00
     -6.756  0.1226E+00  0.2593E-01  0.2030E+00
     -6.671  0.1240E+00  0.2839E-01  0.2527E+00
     -6.587  0.1854E+00  0.3448E-01  0.4019E+00
     -6.502  0.1961E+00  0.3771E-01  0.4173E+00
     -6.417  0.1334E+00  0.3013E-01  0.3382E+00
     -6.332  0.1128E+00  0.2607E-01  0.5605E+00
     -6.248  0.2849E+00  0.5098E-01  0.1305E+01
     -6.163  0.3037E+00  0.5917E-01  0.1372E+01
     -6.078  0.1778E+00  0.4858E-01  0.1052E+01
     -5.993  0.1627E+00  0.4371E-01  0.1155E+01
     -5.908  0.9006E-01  0.2870E-01  0.8475E+00
     -5.824  0.5539E-01  0.2272E-01  0.6288E+00
     -5.739  0.4266E-01  0.1848E-01  0.5644E+00
     -5.654  0.4566E-01  0.3315E-01  0.1130E+01
     -5.569  0.3791E-01  0.4410E-01  0.1501E+01
     -5.485  0.1660E-01  0.3563E-01  0.1245E+01
     -5.400  0.2766E-01  0.3483E-01  0.1254E+01
     -5.315  0.3624E-01  0.3524E-01  0.1381E+01
     -5.230  0.2726E-01  0.2465E-01  0.1292E+01
     -5.146  0.3920E-01  0.2464E-01  0.1331E+01
     -5.061  0.4342E-01  0.2512E-01  0.1310E+01
     -4.976  0.3251E-01  0.2006E-01  0.1381E+01
     -4.891  0.3100E-01  0.2521E-01  0.1831E+01
     -4.807  0.4834E-01  0.3668E-01  0.2162E+01
     -4.722  0.5950E-01  0.4586E-01  0.2425E+01
     -4.637  0.3989E-01  0.3936E-01  0.2460E+01
     -4.552  0.3800E-01  0.3365E-01  0.2409E+01
     -4.467  0.5143E-01  0.3763E-01  0.2645E+01
     -4.383  0.6222E-01  0.4919E-01  0.3223E+01
     -4.298  0.8306E-01  0.6138E-01  0.3480E+01
     -4.213  0.7036E-01  0.5507E-01  0.2525E+01
     -4.128  0.5819E-01  0.4957E-01  0.1676E+01
     -4.044  0.4906E-01  0.4880E-01  0.2024E+01
     -3.959  0.3634E-01  0.5575E-01  0.2143E+01
     -3.874  0.3150E-01  0.5404E-01  0.2363E+01
     -3.789  0.4304E-01  0.5008E-01  0.2752E+01
     -3.705  0.6156E-01  0.5797E-01  0.2265E+01
     -3.620  0.7741E-01  0.7562E-01  0.2071E+01
     -3.535  0.6555E-01  0.5836E-01  0.2783E+01
     -3.450  0.3550E-01  0.2499E-01  0.2670E+01
     -3.365  0.1712E-01  0.2316E-01  0.2431E+01
     -3.281  0.2805E-01  0.3448E-01  0.2744E+01
     -3.196  0.5409E-01  0.5794E-01  0.2929E+01
     -3.111  0.5478E-01  0.5235E-01  0.2384E+01
     -3.026  0.3640E-01  0.2554E-01  0.2012E+01
     -2.942  0.4102E-01  0.3242E-01  0.3066E+01
     -2.857  0.3594E-01  0.3752E-01  0.3148E+01
     -2.772  0.5341E-01  0.3504E-01  0.2425E+01
     -2.687  0.6904E-01  0.3355E-01  0.2735E+01
     -2.603  0.4784E-01  0.2489E-01  0.2832E+01
     -2.518  0.2945E-01  0.1956E-01  0.2525E+01
     -2.433  0.4792E-01  0.2705E-01  0.2056E+01
     -2.348  0.3519E-01  0.2620E-01  0.1585E+01
     -2.264  0.1600E-01  0.1371E-01  0.1163E+01
     -2.179  0.7433E-01  0.3269E-01  0.7255E+00
     -2.094  0.1032E+00  0.4315E-01  0.4310E+00
     -2.009  0.4803E-01  0.1829E-01  0.1572E+00
     -1.924  0.7123E-02  0.3708E-02  0.2781E-01
     -1.840  0.3189E-01  0.1405E-01  0.1215E+00
     -1.755  0.6979E-01  0.2351E-01  0.1791E+00
     -1.670  0.3815E-01  0.2038E-01  0.1225E+00
     -1.585  0.5675E-01  0.3459E-01  0.2737E+00
     -1.501  0.5110E-01  0.2951E-01  0.2768E+00
     -1.416  0.7870E-02  0.2885E-02  0.3157E-01
     -1.331  0.2065E-02 -0.6959E-03  0.2112E-02
     -1.246  0.6371E-01  0.4149E-01  0.1117E+00
     -1.162  0.1984E+00  0.1122E+00  0.3606E+00
     -1.077  0.1186E+00  0.5763E-01  0.2465E+00
     -0.992  0.3856E-01  0.2679E-01  0.7066E-01
     -0.907  0.3992E-01  0.3964E-01  0.4333E-01
     -0.822  0.4441E-01  0.4351E-01  0.1153E+00
     -0.738  0.1620E-01  0.2749E-01  0.8622E-01
     -0.653  0.3925E-02  0.9465E-02  0.1645E-01
     -0.568  0.6448E-01  0.4400E-01  0.1670E+00
     -0.483  0.9208E-01  0.6147E-01  0.2384E+00
     -0.399  0.3132E-01  0.3059E-01  0.7491E-01
     -0.314  0.6185E-01  0.4901E-01  0.8068E-01
     -0.229  0.1508E+00  0.9882E-01  0.1545E+00
     -0.144  0.4939E-01  0.4729E-01  0.4753E-01
     -0.060  0.2147E-01  0.6137E-01  0.7674E-01
      0.025  0.1214E+00  0.1286E+00  0.2254E+00
      0.110  0.1354E+00  0.1223E+00  0.2002E+00
      0.195  0.6170E-01  0.4276E-01  0.8936E-01
      0.279  0.4612E-01  0.2316E-01  0.6018E-01
      0.364  0.1608E-01  0.1789E-01  0.2622E-01
      0.449  0.7793E-02  0.4054E-01  0.4071E-01
      0.534  0.3187E-01  0.5051E-01  0.7749E-01
      0.619  0.6370E-01  0.5227E-01  0.1038E+00
      0.703  0.6512E-01  0.1071E+00  0.1217E+00
      0.788  0.3043E-01  0.9790E-01  0.6970E-01
      0.873  0.6267E-01  0.7696E-01  0.6937E-01
      0.958  0.1362E+00  0.9080E-01  0.1312E+00
      1.042  0.1066E+00  0.7870E-01  0.1199E+00
      1.127  0.4898E-01  0.5958E-01  0.6907E-01
      1.212  0.3567E-01  0.3987E-01  0.3273E-01
      1.297  0.8341E-01  0.1064E+00  0.1154E+00
      1.381  0.1293E+00  0.1565E+00  0.1782E+00
      1.466  0.4907E-01  0.6781E-01  0.6493E-01
      1.551  0.1185E-01  0.2136E-01  0.1852E-01
      1.636  0.2752E-01  0.4079E-01  0.5011E-01
      1.721  0.3561E-01  0.5798E-01  0.7010E-01
      1.805  0.3785E-01  0.3562E-01  0.5011E-01
      1.890  0.6444E-01  0.2502E-01  0.5246E-01
      1.975  0.2842E-01  0.1062E-01  0.2734E-01
      2.060  0.3777E-01  0.4025E-01  0.3499E-01
      2.144  0.1243E+00  0.1230E+00  0.1136E+00
      2.229  0.1116E+00  0.8571E-01  0.9245E-01
      2.314  0.9259E-01  0.4806E-01  0.6593E-01
      2.399  0.8527E-01  0.3221E-01  0.6118E-01
      2.483  0.6965E-01  0.3028E-01  0.4797E-01
      2.568  0.1266E+00  0.4589E-01  0.5948E-01
      2.653  0.1152E+00  0.5299E-01  0.5792E-01
      2.738  0.1017E+00  0.7745E-01  0.7649E-01
      2.822  0.5999E-01  0.2990E-01  0.3351E-01
      2.907  0.5530E-01  0.2190E-01  0.3162E-01
      2.992  0.1106E+00  0.3754E-01  0.5918E-01
      3.077  0.1635E+00  0.6724E-01  0.8500E-01
      3.162  0.1045E+00  0.7398E-01  0.7129E-01
      3.246  0.7062E-01  0.5314E-01  0.4640E-01
      3.331  0.1073E+00  0.6313E-01  0.6181E-01
      3.416  0.1212E+00  0.6138E-01  0.6146E-01
      3.501  0.2226E+00  0.7871E-01  0.9335E-01
      3.585  0.2133E+00  0.8771E-01  0.1048E+00
      3.670  0.1293E+00  0.6164E-01  0.7323E-01
      3.755  0.8219E-01  0.4636E-01  0.4828E-01
      3.840  0.1236E+00  0.8361E-01  0.6486E-01
      3.924  0.9880E-01  0.7178E-01  0.4438E-01
      4.009  0.2144E-01  0.4360E-01  0.1974E-01
      4.094  0.9757E-02  0.1107E+00  0.5015E-01
      4.179  0.2610E-01  0.1521E+00  0.6739E-01
      4.264  0.7414E-01  0.1138E+00  0.6305E-01
      4.348  0.1409E+00  0.9086E-01  0.7030E-01
      4.433  0.1090E+00  0.7901E-01  0.4966E-01
      4.518  0.6311E-01  0.8526E-01  0.5481E-01
      4.603  0.7153E-01  0.1033E+00  0.6734E-01
      4.687  0.1076E+00  0.1256E+00  0.7176E-01
      4.772  0.3906E-01  0.5402E-01  0.2698E-01
      4.857  0.3099E-01  0.6287E-01  0.2973E-01
      4.942  0.4408E-01  0.1080E+00  0.4631E-01
      5.026  0.4998E-01  0.1365E+00  0.6192E-01
      5.111  0.3364E-01  0.6004E-01  0.3554E-01
      5.196  0.6186E-01  0.7646E-01  0.4023E-01
      5.281  0.1441E+00  0.1789E+00  0.9878E-01
      5.365  0.9498E-01  0.1682E+00  0.8305E-01
      5.450  0.8229E-01  0.1244E+00  0.5453E-01
      5.535  0.6583E-01  0.7755E-01  0.3040E-01
      5.620  0.2860E-01  0.8094E-01  0.3550E-01
      5.705  0.3337E-01  0.1388E+00  0.5850E-01
      5.789  0.2054E-01  0.7865E-01  0.3160E-01
      5.874  0.1857E-01  0.4778E-01  0.2232E-01
      5.959  0.5263E-01  0.1358E+00  0.5864E-01
      6.044  0.7665E-01  0.1764E+00  0.8103E-01
      6.128  0.4611E-01  0.1212E+00  0.4118E-01
      6.213  0.8535E-01  0.1854E+00  0.7274E-01
      6.298  0.7940E-01  0.1320E+00  0.6762E-01
      6.383  0.3819E-01  0.5953E-01  0.3295E-01
      6.467  0.4146E-01  0.8204E-01  0.4422E-01
      6.552  0.7390E-01  0.1591E+00  0.6703E-01
      6.637  0.4090E-01  0.1352E+00  0.5143E-01
      6.722  0.2592E-01  0.4420E-01  0.2321E-01
      6.807  0.4213E-01  0.2407E-01  0.1514E-01
      6.891  0.6330E-01  0.5187E-01  0.1695E-01
      6.976  0.5934E-01  0.9196E-01  0.2914E-01
      7.061  0.5416E-01  0.1889E+00  0.7127E-01
      7.146  0.7718E-01  0.2107E+00  0.8940E-01
      7.230  0.6382E-01  0.1396E+00  0.7832E-01
      7.315  0.6604E-01  0.9915E-01  0.6936E-01
      7.400  0.3696E-01  0.6124E-01  0.3610E-01
      7.485  0.3875E-01  0.1201E+00  0.5991E-01
      7.569  0.9078E-01  0.1971E+00  0.8364E-01
      7.654  0.1082E+00  0.1587E+00  0.5418E-01
      7.739  0.4544E-01  0.6725E-01  0.1853E-01
      7.824  0.1450E-01  0.6870E-01  0.2860E-01
      7.908  0.5591E-01  0.2215E+00  0.8194E-01
      7.993  0.6292E-01  0.1753E+00  0.6871E-01
      8.078  0.5647E-01  0.1188E+00  0.5554E-01
      8.163  0.7089E-01  0.1679E+00  0.6807E-01
      8.248  0.5767E-01  0.1118E+00  0.3858E-01
      8.332  0.1568E-01  0.6456E-01  0.2092E-01
      8.417  0.3717E-01  0.8877E-01  0.4229E-01
      8.502  0.6574E-01  0.1639E+00  0.9369E-01
      8.587  0.4711E-01  0.2172E+00  0.1111E+00
      8.671  0.2436E-01  0.1614E+00  0.6915E-01
      8.756  0.6451E-02  0.5736E-01  0.1906E-01
      8.841  0.2244E-01  0.1108E+00  0.5520E-01
      8.926  0.4106E-01  0.1140E+00  0.7928E-01
      9.010  0.4006E-01  0.8906E-01  0.5479E-01
      9.095  0.4253E-01  0.9664E-01  0.5241E-01
      9.180  0.9018E-01  0.2451E+00  0.1422E+00
      9.265  0.1031E+00  0.3081E+00  0.1540E+00
      9.350  0.3998E-01  0.1686E+00  0.8259E-01
      9.434  0.2146E-01  0.1303E+00  0.5966E-01
      9.519  0.1910E-01  0.1369E+00  0.5876E-01
      9.604  0.1501E-01  0.9097E-01  0.4561E-01
      9.689  0.1176E-01  0.4253E-01  0.2737E-01
      9.773  0.1626E-01  0.8115E-01  0.4128E-01
      9.858  0.2250E-01  0.1406E+00  0.6185E-01
      9.943  0.2395E-01  0.1340E+00  0.6031E-01
     10.028  0.4176E-01  0.1907E+00  0.8881E-01
     10.112  0.6423E-01  0.2605E+00  0.1294E+00
     10.197  0.6011E-01  0.2269E+00  0.1282E+00
     10.282  0.4150E-01  0.1771E+00  0.1052E+00
     10.367  0.3786E-01  0.1684E+00  0.9499E-01
     10.451  0.3116E-01  0.2138E+00  0.1092E+00
     10.536  0.2452E-01  0.1667E+00  0.7379E-01
     10.621  0.1931E-01  0.1252E+00  0.4634E-01
     10.706  0.1335E-01  0.1472E+00  0.6082E-01
     10.791  0.3786E-01  0.1908E+00  0.9547E-01
     10.875  0.4492E-01  0.1296E+00  0.6912E-01
     10.960  0.3650E-01  0.1175E+00  0.5588E-01
     11.045  0.1730E-01  0.1143E+00  0.7563E-01
     11.130  0.1138E-01  0.1082E+00  0.7307E-01
     11.214  0.4235E-01  0.2030E+00  0.1009E+00
     11.299  0.3659E-01  0.2201E+00  0.1141E+00
     11.384  0.1557E-01  0.1515E+00  0.8718E-01
     11.469  0.2087E-01  0.1911E+00  0.1105E+00
     11.553  0.1927E-01  0.1991E+00  0.9023E-01
     11.638  0.2033E-01  0.2018E+00  0.9090E-01
     11.723  0.2014E-01  0.2217E+00  0.1060E+00
     11.808  0.2973E-01  0.2142E+00  0.9591E-01
     11.893  0.1702E-01  0.1157E+00  0.5255E-01
     11.977  0.6561E-02  0.1140E+00  0.5711E-01
     12.062  0.6333E-02  0.1335E+00  0.5422E-01
     12.147  0.1614E-01  0.1384E+00  0.6279E-01
     12.232  0.2619E-01  0.1472E+00  0.9068E-01
     12.316  0.3053E-01  0.2126E+00  0.1132E+00
     12.401  0.2311E-01  0.2188E+00  0.1025E+00
     12.486  0.3789E-01  0.2949E+00  0.1403E+00
     12.571  0.3359E-01  0.1764E+00  0.8610E-01
     12.655  0.1885E-01  0.9273E-01  0.7044E-01
     12.740  0.2297E-01  0.1289E+00  0.1032E+00
     12.825  0.2328E-01  0.1473E+00  0.8372E-01
     12.910  0.1155E-01  0.1286E+00  0.6092E-01
     12.994  0.1156E-01  0.1296E+00  0.5629E-01
     13.079  0.8336E-02  0.6699E-01  0.3132E-01
     13.164  0.4203E-02  0.3940E-01  0.3091E-01
     13.249  0.8047E-02  0.8672E-01  0.7076E-01
     13.334  0.8587E-02  0.8147E-01  0.6711E-01
     13.418  0.4241E-02  0.3458E-01  0.2403E-01
     13.503  0.6989E-03  0.4853E-02  0.2821E-02
     13.588 -0.8471E-04 -0.1111E-03  0.3048E-03
     13.673 -0.2668E-04  0.2942E-04  0.9706E-04
     13.757 -0.2633E-05 -0.5631E-04 -0.5447E-04
     13.842 -0.1506E-06 -0.5919E-05 -0.5919E-05
     13.927 -0.2335E-08 -0.9977E-07 -0.1000E-06
     14.012 -0.8044E-11 -0.3479E-09 -0.3488E-09
     14.096 -0.6210E-14 -0.2691E-12 -0.2698E-12
     14.181 -0.1095E-17 -0.4747E-16 -0.4759E-16
     14.266  0.0000E+00  0.0000E+00  0.0000E+00
     14.351  0.0000E+00  0.0000E+00  0.0000E+00
     14.436  0.0000E+00  0.0000E+00  0.0000E+00
     14.520  0.0000E+00  0.0000E+00  0.0000E+00
     14.605  0.0000E+00  0.0000E+00  0.0000E+00
     14.690  0.0000E+00  0.0000E+00  0.0000E+00
     14.68980089    -10.74019030  301     -0.57342908      1.00000000
    -10.740  0.0000E+00  0.0000E+00  0.0000E+00
    -10.655  0.0000E+00  0.0000E+00  0.0000E+00
    -10.571  0.0000E+00  0.0000E+00  0.0000E+00
    -10.486  0.0000E+00  0.0000E+00  0.0000E+00
    -10.401 -0.4195E-31 -0.4049E-32 -0.2056E-34
    -10.316 -0.1893E-25 -0.1828E-26 -0.9281E-29
    -10.232 -0.2004E-20 -0.1934E-21 -0.9822E-24
    -10.147 -0.4798E-16 -0.4632E-17 -0.2352E-19
    -10.062 -0.2720E-12 -0.2625E-13 -0.1334E-15
     -9.977 -0.3516E-09 -0.3394E-10 -0.1731E-12
     -9.893 -0.1009E-06 -0.9743E-08 -0.5093E-10
     -9.808 -0.6024E-05 -0.5824E-06 -0.3659E-08
     -9.723 -0.6013E-04 -0.5902E-05 -0.1021E-06
     -9.638  0.5520E-04  0.3559E-05 -0.1288E-05
     -9.553  0.1329E-02  0.1304E-03  0.2207E-05
     -9.469  0.5694E-02  0.5976E-03  0.3830E-04
     -9.384  0.4663E-02  0.4884E-03  0.2947E-04
     -9.299  0.1429E-02  0.1741E-03  0.3175E-04
     -9.214  0.6622E-02  0.8333E-03  0.1765E-03
     -9.130  0.7923E-02  0.1048E-02  0.2675E-03
     -9.045  0.3863E-02  0.5189E-03  0.1442E-03
     -8.960  0.2851E-02  0.1258E-03 -0.2909E-04
     -8.875  0.2103E-01  0.1768E-02  0.3596E-03
     -8.791  0.3205E-01  0.3386E-02  0.1106E-02
     -8.706  0.1100E-01  0.1368E-02  0.5407E-03
     -8.621  0.2778E-01  0.3003E-02  0.1024E-02
     -8.536  0.3546E-01  0.3856E-02  0.1270E-02
     -8.451  0.1512E-01  0.1525E-02  0.3453E-03
     -8.367 -0.1104E-02 -0.3142E-04  0.1135E-03
     -8.282  0.2387E-01  0.3971E-02  0.2997E-02
     -8.197  0.5604E-01  0.8287E-02  0.5477E-02
     -8.112  0.3055E-01  0.3343E-02  0.2638E-02
     -8.028  0.5458E-01  0.4641E-02  0.5537E-02
     -7.943  0.3067E-01  0.2640E-02  0.3687E-02
     -7.858  0.1305E-01  0.6111E-03  0.7164E-03
     -7.773  0.7219E-01  0.7998E-02  0.8831E-02
     -7.689  0.1004E+00  0.1478E-01  0.1900E-01
     -7.604  0.3394E-01  0.6467E-02  0.1134E-01
     -7.519  0.2236E-01  0.4088E-02  0.9446E-02
     -7.434  0.7946E-01  0.7415E-02  0.1442E-01
     -7.350  0.6724E-01  0.5333E-02  0.9890E-02
     -7.265  0.8453E-01  0.1544E-01  0.4392E-01
     -7.180  0.1232E+00  0.1897E-01  0.1077E+00
     -7.095  0.1050E+00  0.1003E-01  0.1079E+00
     -7.010  0.1048E+00  0.1269E-01  0.5830E-01
     -6.926  0.1488E+00  0.2043E-01  0.1534E+00
     -6.841  0.1645E+00  0.2595E-01  0.2226E+00
     -6.756  0.1226E+00  0.2593E-01  0.2030E+00
     -6.671  0.1240E+00  0.2839E-01  0.2527E+00
     -6.587  0.1854E+00  0.3448E-01  0.4019E+00
     -6.502  0.1961E+00  0.3771E-01  0.4173E+00
     -6.417  0.1334E+00  0.3013E-01  0.3382E+00
     -6.332  0.1128E+00  0.2607E-01  0.5605E+00
     -6.248  0.2849E+00  0.5098E-01  0.1305E+01
     -6.163  0.3037E+00  0.5917E-01  0.1372E+01
     -6.078  0.1778E+00  0.4858E-01  0.1052E+01
     -5.993  0.1627E+00  0.4371E-01  0.1155E+01
     -5.908  0.9006E-01  0.2870E-01  0.8475E+00
     -5.824  0.5539E-01  0.2272E-01  0.6288E+00
     -5.739  0.4266E-01  0.1848E-01  0.5644E+00
     -5.654  0.4566E-01  0.3315E-01  0.1130E+01
     -5.569  0.3791E-01  0.4410E-01  0.1501E+01
     -5.485  0.1660E-01  0.3563E-01  0.1245E+01
     -5.400  0.2766E-01  0.3483E-01  0.1254E+01
     -5.315  0.3624E-01  0.3524E-01  0.1381E+01
     -5.230  0.2726E-01  0.2465E-01  0.1292E+01
     -5.146  0.3920E-01  0.2464E-01  0.1331E+01
     -5.061  0.4341E-01  0.2512E-01  0.1310E+01
     -4.976  0.3251E-01  0.2006E-01  0.1381E+01
     -4.891  0.3100E-01  0.2521E-01  0.1831E+01
     -4.807  0.4834E-01  0.3668E-01  0.2162E+01
     -4.722  0.5950E-01  0.4586E-01  0.2425E+01
     -4.637  0.3989E-01  0.3936E-01  0.2460E+01
     -4.552  0.3800E-01  0.3365E-01  0.2409E+01
     -4.467  0.5143E-01  0.3763E-01  0.2645E+01
     -4.383  0.6222E-01  0.4919E-01  0.3223E+01
     -4.298  0.8306E-01  0.6138E-01  0.3480E+01
     -4.213  0.7036E-01  0.5507E-01  0.2525E+01
     -4.128  0.5819E-01  0.4957E-01  0.1676E+01
     -4.044  0.4906E-01  0.4880E-01  0.2024E+01
     -3.959  0.3634E-01  0.5575E-01  0.2143E+01
     -3.874  0.3150E-01  0.5404E-01  0.2363E+01
     -3.789  0.4304E-01  0.5008E-01  0.2752E+01
     -3.705  0.6156E-01  0.5797E-01  0.2265E+01
     -3.620  0.7741E-01  0.7562E-01  0.2070E+01
     -3.535  0.6555E-01  0.5836E-01  0.2783E+01
     -3.450  0.3550E-01  0.2499E-01  0.2670E+01
     -3.365  0.1711E-01  0.2316E-01  0.2431E+01
     -3.281  0.2805E-01  0.3448E-01  0.2744E+01
     -3.196  0.5409E-01  0.5794E-01  0.2929E+01