  96  96   1   0
  0.3614814E+02  0.1129732E-08  0.1126711E-08  0.3153028E-08  0.0000000E+00
  1.000000000000000E-004
  CAR 
 unknown system                          
     15.69281647    -10.64932949  301     -0.23754877      1.00000000
    -10.649  0.0000E+00  0.0000E+00
    -10.562  0.0000E+00  0.0000E+00
    -10.474  0.0000E+00  0.0000E+00
    -10.386  0.0000E+00  0.0000E+00
    -10.298 -0.2739E-30 -0.2405E-31
    -10.210 -0.3226E-24 -0.2832E-25
    -10.122 -0.8017E-19 -0.7039E-20
    -10.035 -0.4032E-14 -0.3540E-15
     -9.947 -0.4395E-10 -0.3859E-11
     -9.859 -0.9756E-07 -0.8570E-08
     -9.771 -0.4332E-04 -0.3812E-05
     -9.683 -0.3595E-02 -0.3195E-03
     -9.596 -0.4295E-01 -0.4091E-02
     -9.508  0.8026E-01  0.2957E-02
     -9.420  0.8553E+00  0.7806E-01
     -9.332  0.4180E+01  0.4451E+00
     -9.244  0.4631E+01  0.8518E+00
     -9.157  0.3692E+00  0.8842E+00
     -9.069  0.4304E+01  0.1262E+01
     -8.981  0.6584E+01  0.1840E+01
     -8.893  0.4865E+01  0.2267E+01
     -8.805  0.1365E+01  0.2387E+01
     -8.718  0.9227E+00  0.2468E+01
     -8.630  0.1025E+02  0.3368E+01
     -8.542  0.1351E+02  0.4555E+01
     -8.454  0.2426E+01  0.4768E+01
     -8.366  0.7965E+01  0.5467E+01
     -8.279  0.1301E+02  0.6609E+01
     -8.191  0.4188E+01  0.6977E+01
     -8.103  0.6299E+00  0.7032E+01
     -8.015  0.6021E+01  0.7561E+01
     -7.927  0.1950E+02  0.9273E+01
     -7.840  0.1698E+02  0.1076E+02
     -7.752  0.8486E+01  0.1151E+02
     -7.664  0.1138E+02  0.1251E+02
     -7.576  0.5157E+01  0.1296E+02
     -7.488  0.6900E+01  0.1357E+02
     -7.400  0.1802E+02  0.1515E+02
     -7.313  0.2611E+02  0.1744E+02
     -7.225  0.2105E+02  0.1929E+02
     -7.137  0.9941E+01  0.2016E+02
     -7.049  0.1748E+02  0.2170E+02
     -6.961  0.1777E+02  0.2326E+02
     -6.874  0.1934E+02  0.2496E+02
     -6.786  0.4466E+02  0.2888E+02
     -6.698  0.5862E+02  0.3403E+02
     -6.610  0.5425E+02  0.3879E+02
     -6.522  0.3760E+02  0.4209E+02
     -6.435  0.6524E+02  0.4782E+02
     -6.347  0.8301E+02  0.5511E+02
     -6.259  0.7668E+02  0.6184E+02
     -6.171  0.9026E+02  0.6977E+02
     -6.083  0.1079E+03  0.7924E+02
     -5.996  0.1220E+03  0.8996E+02
     -5.908  0.1271E+03  0.1011E+03
     -5.820  0.1205E+03  0.1117E+03
     -5.732  0.1061E+03  0.1210E+03
     -5.644  0.1189E+03  0.1314E+03
     -5.557  0.1667E+03  0.1461E+03
     -5.469  0.1742E+03  0.1614E+03
     -5.381  0.1516E+03  0.1747E+03
     -5.293  0.1405E+03  0.1870E+03
     -5.205  0.1345E+03  0.1988E+03
     -5.117  0.1144E+03  0.2089E+03
     -5.030  0.1035E+03  0.2180E+03
     -4.942  0.9144E+02  0.2260E+03
     -4.854  0.1082E+03  0.2355E+03
     -4.766  0.1377E+03  0.2476E+03
     -4.678  0.1356E+03  0.2595E+03
     -4.591  0.1230E+03  0.2703E+03
     -4.503  0.1344E+03  0.2821E+03
     -4.415  0.1480E+03  0.2951E+03
     -4.327  0.1419E+03  0.3075E+03
     -4.239  0.1509E+03  0.3208E+03
     -4.152  0.1554E+03  0.3344E+03
     -4.064  0.1542E+03  0.3480E+03
     -3.976  0.1551E+03  0.3616E+03
     -3.888  0.1573E+03  0.3754E+03
     -3.800  0.1616E+03  0.3896E+03
     -3.713  0.1801E+03  0.4054E+03
     -3.625  0.1877E+03  0.4219E+03
     -3.537  0.1938E+03  0.4389E+03
     -3.449  0.2000E+03  0.4565E+03
     -3.361  0.2013E+03  0.4741E+03
     -3.274  0.1978E+03  0.4915E+03
     -3.186  0.1991E+03  0.5090E+03
     -3.098  0.1926E+03  0.5259E+03
     -3.010  0.1803E+03  0.5417E+03
     -2.922  0.1799E+03  0.5575E+03
     -2.834  0.1759E+03  0.5730E+03
     -2.747  0.1688E+03  0.5878E+03
     -2.659  0.1418E+03  0.6003E+03
     -2.571  0.1200E+03  0.6108E+03
     -2.483  0.1242E+03  0.6217E+03
     -2.395  0.1357E+03  0.6336E+03
     -2.308  0.1371E+03  0.6456E+03
     -2.220  0.1524E+03  0.6590E+03
     -2.132  0.1666E+03  0.6737E+03
     -2.044  0.1628E+03  0.6880E+03
     -1.956  0.1418E+03  0.7004E+03
     -1.869  0.1318E+03  0.7120E+03
     -1.781  0.1362E+03  0.7239E+03
     -1.693  0.1384E+03  0.7361E+03
     -1.605  0.1439E+03  0.7487E+03
     -1.517  0.1616E+03  0.7629E+03
     -1.430  0.1658E+03  0.7775E+03
     -1.342  0.1583E+03  0.7914E+03
     -1.254  0.1542E+03  0.8049E+03
     -1.166  0.1431E+03  0.8175E+03
     -1.078  0.1283E+03  0.8287E+03
     -0.991  0.1356E+03  0.8406E+03
     -0.903  0.1529E+03  0.8541E+03
     -0.815  0.1593E+03  0.8681E+03
     -0.727  0.1485E+03  0.8811E+03
     -0.639  0.1445E+03  0.8938E+03
     -0.552  0.1560E+03  0.9075E+03
     -0.464  0.1741E+03  0.9228E+03
     -0.376  0.1991E+03  0.9403E+03
     -0.288  0.2093E+03  0.9586E+03
     -0.200  0.2038E+03  0.9765E+03
     -0.112  0.1805E+03  0.9924E+03
     -0.025  0.1351E+03  0.1004E+04
      0.063  0.8746E+02  0.1012E+04
      0.151  0.4594E+02  0.1016E+04
      0.239  0.3853E+02  0.1019E+04
      0.327  0.3485E+02  0.1022E+04
      0.414  0.2234E+02  0.1024E+04
      0.502  0.3046E+02  0.1027E+04
      0.590  0.4096E+02  0.1031E+04
      0.678  0.3898E+02  0.1034E+04
      0.766  0.3731E+02  0.1037E+04
      0.853  0.4025E+02  0.1041E+04
      0.941  0.4182E+02  0.1045E+04
      1.029  0.3218E+02  0.1047E+04
      1.117  0.2534E+02  0.1050E+04
      1.205  0.1483E+02  0.1051E+04
      1.292  0.1172E+02  0.1052E+04
      1.380  0.1234E+02  0.1053E+04
      1.468  0.1514E+02  0.1054E+04
      1.556  0.3673E+02  0.1058E+04
      1.644  0.5288E+02  0.1062E+04
      1.731  0.4283E+02  0.1066E+04
      1.819  0.3642E+02  0.1069E+04
      1.907  0.3359E+02  0.1072E+04
      1.995  0.2151E+02  0.1074E+04
      2.083  0.2114E+02  0.1076E+04
      2.171  0.2702E+02  0.1078E+04
      2.258  0.3784E+02  0.1082E+04
      2.346  0.3763E+02  0.1085E+04
      2.434  0.1517E+02  0.1086E+04
      2.522  0.2079E+02  0.1088E+04
      2.610  0.3638E+02  0.1091E+04
      2.697  0.2348E+02  0.1093E+04
      2.785  0.1330E+02  0.1094E+04
      2.873  0.2070E+02  0.1096E+04
      2.961  0.3505E+02  0.1099E+04
      3.049  0.3916E+02  0.1103E+04
      3.136  0.4815E+02  0.1107E+04
      3.224  0.4615E+02  0.1111E+04
      3.312  0.2865E+02  0.1114E+04
      3.400  0.1644E+02  0.1115E+04
      3.488  0.1453E+02  0.1116E+04
      3.575  0.2227E+02  0.1118E+04
      3.663  0.2699E+02  0.1121E+04
      3.751  0.2550E+02  0.1123E+04
      3.839  0.1646E+02  0.1124E+04
      3.927  0.2765E+02  0.1127E+04
      4.014  0.3965E+02  0.1130E+04
      4.102  0.2378E+02  0.1132E+04
      4.190  0.9776E+01  0.1133E+04
      4.278  0.1824E+02  0.1135E+04
      4.366  0.3121E+02  0.1137E+04
      4.454  0.2754E+02  0.1140E+04
      4.541  0.1262E+02  0.1141E+04
      4.629  0.1091E+02  0.1142E+04
      4.717  0.3247E+02  0.1145E+04
      4.805  0.4407E+02  0.1149E+04
      4.893  0.2654E+02  0.1151E+04
      4.980  0.1673E+02  0.1152E+04
      5.068  0.1839E+02  0.1154E+04
      5.156  0.2879E+02  0.1157E+04
      5.244  0.3119E+02  0.1159E+04
      5.332  0.2909E+02  0.1162E+04
      5.419  0.3470E+02  0.1165E+04
      5.507  0.4023E+02  0.1169E+04
      5.595  0.4524E+02  0.1172E+04
      5.683  0.4933E+02  0.1177E+04
      5.771  0.4960E+02  0.1181E+04
      5.858  0.5195E+02  0.1186E+04
      5.946  0.6769E+02  0.1192E+04
      6.034  0.6848E+02  0.1198E+04
      6.122  0.5198E+02  0.1202E+04
      6.210  0.3979E+02  0.1206E+04
      6.297  0.4513E+02  0.1210E+04
      6.385  0.4779E+02  0.1214E+04
      6.473  0.5955E+02  0.1219E+04
      6.561  0.5387E+02  0.1224E+04
      6.649  0.3213E+02  0.1227E+04
      6.736  0.3874E+02  0.1230E+04
      6.824  0.3924E+02  0.1234E+04
      6.912  0.4373E+02  0.1237E+04
      7.000  0.5639E+02  0.1242E+04
      7.088  0.6561E+02  0.1248E+04
      7.176  0.6238E+02  0.1254E+04
      7.263  0.5263E+02  0.1258E+04
      7.351  0.4342E+02  0.1262E+04
      7.439  0.3286E+02  0.1265E+04
      7.527  0.2812E+02  0.1267E+04
      7.615  0.4662E+02  0.1271E+04
      7.702  0.7197E+02  0.1278E+04
      7.790  0.7195E+02  0.1284E+04
      7.878  0.6308E+02  0.1290E+04
      7.966  0.7169E+02  0.1296E+04
      8.054  0.5958E+02  0.1301E+04
      8.141  0.5336E+02  0.1306E+04
      8.229  0.5589E+02  0.1311E+04
      8.317  0.5659E+02  0.1316E+04
      8.405  0.4069E+02  0.1319E+04
      8.493  0.4111E+02  0.1323E+04
      8.580  0.5519E+02  0.1328E+04
      8.668  0.5276E+02  0.1332E+04
      8.756  0.4710E+02  0.1337E+04
      8.844  0.6654E+02  0.1342E+04
      8.932  0.6654E+02  0.1348E+04
      9.019  0.5852E+02  0.1353E+04
      9.107  0.6051E+02  0.1359E+04
      9.195  0.3793E+02  0.1362E+04
      9.283  0.3425E+02  0.1365E+04
      9.371  0.5195E+02  0.1370E+04
      9.459  0.5952E+02  0.1375E+04
      9.546  0.6676E+02  0.1381E+04
      9.634  0.8296E+02  0.1388E+04
      9.722  0.7384E+02  0.1394E+04
      9.810  0.7476E+02  0.1401E+04
      9.898  0.8435E+02  0.1408E+04
      9.985  0.7220E+02  0.1415E+04
     10.073  0.3557E+02  0.1418E+04
     10.161  0.4811E+02  0.1422E+04
     10.249  0.8539E+02  0.1430E+04
     10.337  0.7351E+02  0.1436E+04
     10.424  0.5558E+02  0.1441E+04
     10.512  0.5245E+02  0.1445E+04
     10.600  0.5192E+02  0.1450E+04
     10.688  0.8108E+02  0.1457E+04
     10.776  0.9786E+02  0.1466E+04
     10.863  0.6953E+02  0.1472E+04
     10.951  0.6935E+02  0.1478E+04
     11.039  0.6156E+02  0.1483E+04
     11.127  0.5650E+02  0.1488E+04
     11.215  0.7543E+02  0.1495E+04
     11.302  0.6712E+02  0.1501E+04
     11.390  0.4968E+02  0.1505E+04
     11.478  0.6026E+02  0.1510E+04
     11.566  0.7435E+02  0.1517E+04
     11.654  0.9581E+02  0.1525E+04
     11.741  0.1025E+03  0.1534E+04
     11.829  0.9028E+02  0.1542E+04
     11.917  0.8031E+02  0.1549E+04
     12.005  0.9022E+02  0.1557E+04
     12.093  0.1248E+03  0.1568E+04
     12.181  0.1134E+03  0.1578E+04
     12.268  0.7313E+02  0.1585E+04
     12.356  0.6262E+02  0.1590E+04
     12.444  0.6508E+02  0.1596E+04
     12.532  0.5472E+02  0.1601E+04
     12.620  0.5799E+02  0.1606E+04
     12.707  0.7028E+02  0.1612E+04
     12.795  0.8817E+02  0.1620E+04
     12.883  0.9864E+02  0.1628E+04
     12.971  0.9614E+02  0.1637E+04
     13.059  0.7398E+02  0.1643E+04
     13.146  0.6237E+02  0.1649E+04
     13.234  0.9351E+02  0.1657E+04
     13.322  0.1016E+03  0.1666E+04
     13.410  0.9902E+02  0.1675E+04
     13.498  0.9019E+02  0.1683E+04
     13.585  0.9037E+02  0.1690E+04
     13.673  0.9159E+02  0.1698E+04
     13.761  0.8321E+02  0.1706E+04
     13.849  0.7593E+02  0.1712E+04
     13.937  0.8791E+02  0.1720E+04
     14.024  0.8332E+02  0.1728E+04
     14.112  0.7004E+02  0.1734E+04
     14.200  0.5276E+02  0.1738E+04
     14.288  0.1810E+02  0.1740E+04
     14.376  0.6053E+00  0.1740E+04
     14.464 -0.2470E+00  0.1740E+04
     14.551  0.8778E+00  0.1740E+04
     14.639  0.1837E+00  0.1740E+04
     14.727 -0.3959E-01  0.1740E+04
     14.815 -0.3576E-02  0.1740E+04
     14.903 -0.4330E-04  0.1740E+04
     14.990 -0.9755E-07  0.1740E+04
     15.078 -0.4395E-10  0.1740E+04
     15.166 -0.4109E-14  0.1740E+04
     15.254  0.0000E+00  0.1740E+04
     15.342  0.0000E+00  0.1740E+04
     15.429  0.0000E+00  0.1740E+04
     15.517  0.0000E+00  0.1740E+04
     15.605  0.0000E+00  0.1740E+04
     15.693  0.0000E+00  0.1740E+04
     15.69281647    -10.64932949  301     -0.23754877      1.00000000
    -10.649  0.0000E+00  0.0000E+00  0.0000E+00
    -10.562  0.0000E+00  0.0000E+00  0.0000E+00
    -10.474  0.0000E+00  0.0000E+00  0.0000E+00
    -10.386  0.0000E+00  0.0000E+00  0.0000E+00
    -10.298 -0.3264E-33 -0.4003E-34 -0.1588E-35
    -10.210 -0.3843E-27 -0.4714E-28 -0.1870E-29
    -10.122 -0.9551E-22 -0.1172E-22 -0.4647E-24
    -10.035 -0.4803E-17 -0.5892E-18 -0.2337E-19
     -9.947 -0.5236E-13 -0.6422E-14 -0.2547E-15
     -9.859 -0.1162E-09 -0.1426E-10 -0.5655E-12
     -9.771 -0.5161E-07 -0.6330E-08 -0.2512E-09
     -9.683 -0.4282E-05 -0.5255E-06 -0.2099E-07
     -9.596 -0.5115E-04 -0.6310E-05 -0.2770E-06
     -9.508  0.9619E-04  0.1066E-04 -0.4062E-06
     -9.420  0.1019E-02  0.1242E-03  0.4303E-05
     -9.332  0.4958E-02  0.6492E-03  0.5566E-04
     -9.244  0.5489E-02  0.7213E-03  0.6298E-04
     -9.157  0.4305E-03  0.5844E-04  0.6517E-05
     -9.069  0.5192E-02  0.7690E-03  0.1432E-03
     -8.981  0.8045E-02  0.1199E-02  0.2380E-03
     -8.893  0.5460E-02  0.8818E-03  0.2264E-03
     -8.805  0.1757E-02  0.2513E-03  0.6152E-04
     -8.718  0.5535E-02  0.4592E-03 -0.1598E-04
     -8.630  0.3030E-01  0.3399E-02  0.4962E-03
     -8.542  0.2933E-01  0.3782E-02  0.8785E-03
     -8.454  0.2977E-02  0.5122E-03  0.2102E-03
     -8.366  0.1706E-01  0.2620E-02  0.1032E-02
     -8.279  0.3125E-01  0.4745E-02  0.1668E-02
     -8.191  0.1843E-01  0.2252E-02  0.4254E-03
     -8.103  0.2887E-02  0.2300E-03 -0.3648E-04
     -8.015  0.4143E-02  0.1181E-02  0.1057E-02
     -7.927  0.3679E-01  0.6921E-02  0.4586E-02
     -7.840  0.4577E-01  0.7248E-02  0.4269E-02
     -7.752  0.2809E-01  0.3219E-02  0.2201E-02
     -7.664  0.3795E-01  0.4421E-02  0.3047E-02
     -7.576  0.1462E-01  0.2006E-02  0.1364E-02
     -7.488  0.2708E-01  0.2599E-02  0.1803E-02
     -7.400  0.5986E-01  0.8217E-02  0.6691E-02
     -7.313  0.6060E-01  0.1129E-01  0.1112E-01
     -7.225  0.3461E-01  0.8323E-02  0.1004E-01
     -7.137  0.1269E-01  0.3788E-02  0.6646E-02
     -7.049  0.4864E-01  0.6132E-02  0.8334E-02
     -6.961  0.7314E-01  0.6213E-02  0.7796E-02
     -6.874  0.5334E-01  0.8678E-02  0.1494E-01
     -6.786  0.7408E-01  0.1609E-01  0.3694E-01
     -6.698  0.9811E-01  0.1432E-01  0.5458E-01
     -6.610  0.1487E+00  0.1391E-01  0.7398E-01
     -6.522  0.1228E+00  0.1251E-01  0.5829E-01
     -6.435  0.8912E-01  0.1578E-01  0.7455E-01
     -6.347  0.1505E+00  0.2446E-01  0.1334E+00
     -6.259  0.1969E+00  0.2875E-01  0.1457E+00
     -6.171  0.1412E+00  0.2699E-01  0.1565E+00
     -6.083  0.7922E-01  0.2204E-01  0.1711E+00
     -5.996  0.1382E+00  0.2923E-01  0.2192E+00
     -5.908  0.2376E+00  0.3698E-01  0.2740E+00
     -5.820  0.1919E+00  0.3627E-01  0.2809E+00
     -5.732  0.1753E+00  0.3048E-01  0.2911E+00
     -5.644  0.1742E+00  0.2903E-01  0.4525E+00
     -5.557  0.2272E+00  0.4885E-01  0.7426E+00
     -5.469  0.2650E+00  0.5739E-01  0.8016E+00
     -5.381  0.1905E+00  0.5495E-01  0.7725E+00
     -5.293  0.1426E+00  0.5779E-01  0.7670E+00
     -5.205  0.9163E-01  0.5331E-01  0.7792E+00
     -5.117  0.5297E-01  0.4128E-01  0.6562E+00
     -5.030  0.4072E-01  0.3632E-01  0.4846E+00
     -4.942  0.2689E-01  0.3139E-01  0.4031E+00
     -4.854  0.2957E-01  0.3920E-01  0.6434E+00
     -4.766  0.3639E-01  0.4937E-01  0.8156E+00
     -4.678  0.3086E-01  0.4443E-01  0.7009E+00
     -4.591  0.2259E-01  0.4279E-01  0.6154E+00
     -4.503  0.2931E-01  0.3769E-01  0.6235E+00
     -4.415  0.3427E-01  0.3466E-01  0.7019E+00
     -4.327  0.3313E-01  0.3435E-01  0.7030E+00
     -4.239  0.3477E-01  0.3365E-01  0.7106E+00
     -4.152  0.3347E-01  0.3318E-01  0.6826E+00
     -4.064  0.3435E-01  0.3530E-01  0.7148E+00
     -3.976  0.2995E-01  0.2873E-01  0.7978E+00
     -3.888  0.3403E-01  0.2608E-01  0.8090E+00
     -3.800  0.3773E-01  0.3321E-01  0.9471E+00
     -3.713  0.4539E-01  0.3728E-01  0.1064E+01
     -3.625  0.5165E-01  0.3442E-01  0.1065E+01
     -3.537  0.5030E-01  0.3418E-01  0.1241E+01
     -3.449  0.4966E-01  0.3919E-01  0.1449E+01
     -3.361  0.4426E-01  0.3872E-01  0.1587E+01
     -3.274  0.4547E-01  0.4547E-01  0.1589E+01
     -3.186  0.5638E-01  0.5816E-01  0.1781E+01
     -3.098  0.7812E-01  0.7013E-01  0.2014E+01
     -3.010  0.8628E-01  0.7585E-01  0.1901E+01
     -2.922  0.6445E-01  0.6060E-01  0.1741E+01
     -2.834  0.5002E-01  0.4836E-01  0.1774E+01
     -2.747  0.5288E-01  0.5764E-01  0.1809E+01
     -2.659  0.4123E-01  0.5656E-01  0.1549E+01
     -2.571  0.3148E-01  0.4401E-01  0.1407E+01
     -2.483  0.3009E-01  0.3839E-01  0.1535E+01
     -2.395  0.3389E-01  0.4305E-01  0.1702E+01
     -2.308  0.4704E-01  0.5349E-01  0.1704E+01
     -2.220  0.5464E-01  0.6261E-01  0.1754E+01
     -2.132  0.5899E-01  0.6252E-01  0.1879E+01
     -2.044  0.4950E-01  0.5916E-01  0.1978E+01
     -1.956  0.3495E-01  0.4928E-01  0.1749E+01
     -1.869  0.3544E-01  0.3986E-01  0.1583E+01
     -1.781  0.3709E-01  0.4008E-01  0.1667E+01
     -1.693  0.3477E-01  0.4563E-01  0.1580E+01
     -1.605  0.3440E-01  0.5405E-01  0.1631E+01
     -1.517  0.3852E-01  0.6315E-01  0.2040E+01
     -1.430  0.4110E-01  0.6355E-01  0.2304E+01
     -1.342  0.3271E-01  0.5179E-01  0.2133E+01
     -1.254  0.2888E-01  0.4767E-01  0.2046E+01
     -1.166  0.2921E-01  0.5340E-01  0.1763E+01
     -1.078  0.2355E-01  0.5269E-01  0.1510E+01
     -0.991  0.2964E-01  0.5654E-01  0.1576E+01
     -0.903  0.3483E-01  0.5829E-01  0.1833E+01
     -0.815  0.3339E-01  0.5943E-01  0.1960E+01
     -0.727  0.2859E-01  0.4841E-01  0.1779E+01
     -0.639  0.3603E-01  0.4258E-01  0.1824E+01
     -0.552  0.4372E-01  0.4175E-01  0.2007E+01
     -0.464  0.4238E-01  0.4540E-01  0.2035E+01
     -0.376  0.5533E-01  0.5458E-01  0.2169E+01
     -0.288  0.4769E-01  0.5392E-01  0.2041E+01
     -0.200  0.3410E-01  0.4849E-01  0.1815E+01
     -0.112  0.3305E-01  0.4589E-01  0.1809E+01
     -0.025  0.4810E-01  0.4431E-01  0.1422E+01
      0.063  0.3895E-01  0.3212E-01  0.8173E+00
      0.151  0.1235E-01  0.1492E-01  0.3405E+00
      0.239  0.2320E-01  0.1994E-01  0.2534E+00
      0.327  0.5884E-01  0.3121E-01  0.2442E+00
      0.414  0.3644E-01  0.2544E-01  0.1175E+00
      0.502  0.2348E-01  0.4317E-01  0.1867E+00
      0.590  0.3112E-01  0.5090E-01  0.2462E+00
      0.678  0.3618E-01  0.4969E-01  0.2472E+00
      0.766  0.4851E-01  0.6281E-01  0.2566E+00
      0.853  0.9430E-01  0.8012E-01  0.2282E+00
      0.941  0.7807E-01  0.7771E-01  0.2535E+00
      1.029  0.4314E-01  0.5516E-01  0.2562E+00
      1.117  0.3037E-01  0.5497E-01  0.1747E+00
      1.205  0.1758E-01  0.3583E-01  0.8397E-01
      1.292  0.1222E-01  0.1943E-01  0.6156E-01
      1.380  0.3875E-02  0.1828E-01  0.5682E-01
      1.468  0.1523E-01  0.2127E-01  0.4595E-01
      1.556  0.6276E-01  0.1033E+00  0.1241E+00
      1.644  0.7791E-01  0.1378E+00  0.2149E+00
      1.731  0.7153E-01  0.9845E-01  0.2062E+00
      1.819  0.7063E-01  0.8948E-01  0.2079E+00
      1.907  0.4710E-01  0.8384E-01  0.2136E+00
      1.995  0.2035E-01  0.4272E-01  0.1239E+00
      2.083  0.1258E-01  0.3840E-01  0.9283E-01
      2.171  0.2706E-01  0.7120E-01  0.1451E+00
      2.258  0.6548E-01  0.9857E-01  0.1990E+00
      2.346  0.7162E-01  0.1094E+00  0.1963E+00
      2.434  0.2344E-01  0.5201E-01  0.7304E-01
      2.522  0.1349E-01  0.3750E-01  0.6449E-01
      2.610  0.2332E-01  0.6825E-01  0.1244E+00
      2.697  0.1485E-01  0.5091E-01  0.9117E-01
      2.785  0.1623E-01  0.5433E-01  0.5138E-01
      2.873  0.3026E-01  0.6041E-01  0.8926E-01
      2.961  0.4809E-01  0.8761E-01  0.1422E+00
      3.049  0.6435E-01  0.1174E+00  0.1462E+00
      3.136  0.7992E-01  0.1491E+00  0.1845E+00
      3.224  0.7496E-01  0.1354E+00  0.1950E+00
      3.312  0.2240E-01  0.7370E-01  0.1213E+00
      3.400  0.1140E-01  0.4581E-01  0.7272E-01
      3.488  0.2679E-01  0.5932E-01  0.9089E-01
      3.575  0.3620E-01  0.6855E-01  0.1014E+00
      3.663  0.3931E-01  0.4941E-01  0.8224E-01
      3.751  0.3158E-01  0.3662E-01  0.7581E-01
      3.839  0.1458E-01  0.3278E-01  0.5485E-01
      3.927  0.1309E-01  0.7230E-01  0.8506E-01
      4.014  0.2464E-01  0.1031E+00  0.1121E+00
      4.102  0.1408E-01  0.6467E-01  0.6494E-01
      4.190  0.9973E-02  0.2462E-01  0.3608E-01
      4.278  0.3562E-01  0.3774E-01  0.6643E-01
      4.366  0.5932E-01  0.7822E-01  0.1041E+00
      4.454  0.3798E-01  0.7512E-01  0.8576E-01
      4.541  0.1782E-01  0.3645E-01  0.4000E-01
      4.629  0.3088E-01  0.3185E-01  0.3883E-01
      4.717  0.6417E-01  0.6142E-01  0.9043E-01
      4.805  0.5846E-01  0.7322E-01  0.9635E-01
      4.893  0.3385E-01  0.3842E-01  0.4739E-01
      4.980  0.1491E-01  0.3671E-01  0.4429E-01
      5.068  0.3828E-01  0.4426E-01  0.6241E-01
      5.156  0.7440E-01  0.4404E-01  0.6621E-01
      5.244  0.1024E+00  0.2395E-01  0.5440E-01
      5.332  0.8826E-01  0.1632E-01  0.5243E-01
      5.419  0.7987E-01  0.3658E-01  0.7182E-01
      5.507  0.1139E+00  0.5306E-01  0.9891E-01
      5.595  0.1917E+00  0.5832E-01  0.1194E+00
      5.683  0.1971E+00  0.5705E-01  0.1257E+00
      5.771  0.1891E+00  0.5779E-01  0.1206E+00
      5.858  0.1440E+00  0.6259E-01  0.1060E+00
      5.946  0.1877E+00  0.8578E-01  0.1504E+00
      6.034  0.1519E+00  0.1216E+00  0.1571E+00
      6.122  0.6376E-01  0.9173E-01  0.9275E-01
      6.210  0.8580E-01  0.6106E-01  0.8291E-01
      6.297  0.1153E+00  0.6405E-01  0.1066E+00
      6.385  0.1467E+00  0.6981E-01  0.9258E-01
      6.473  0.1099E+00  0.6875E-01  0.8002E-01
      6.561  0.5612E-01  0.5590E-01  0.6607E-01
      6.649  0.4063E-01  0.4935E-01  0.4232E-01
      6.736  0.9287E-01  0.7232E-01  0.4799E-01
      6.824  0.1042E+00  0.8489E-01  0.6470E-01
      6.912  0.7575E-01  0.1007E+00  0.1005E+00
      7.000  0.8635E-01  0.1127E+00  0.1126E+00
      7.088  0.8230E-01  0.8907E-01  0.8936E-01
      7.176  0.8393E-01  0.9937E-01  0.8167E-01
      7.263  0.6548E-01  0.9486E-01  0.6129E-01
      7.351  0.4302E-01  0.8413E-01  0.4383E-01
      7.439  0.1860E-01  0.6960E-01  0.2956E-01
      7.527  0.2426E-01  0.5985E-01  0.2467E-01
      7.615  0.5151E-01  0.1263E+00  0.7934E-01
      7.702  0.6600E-01  0.1872E+00  0.1298E+00
      7.790  0.6694E-01  0.1404E+00  0.1068E+00
      7.878  0.7187E-01  0.1069E+00  0.7733E-01
      7.966  0.6685E-01  0.1355E+00  0.7330E-01
      8.054  0.5458E-01  0.1344E+00  0.7830E-01
      8.141  0.3585E-01  0.9259E-01  0.7149E-01
      8.229  0.3863E-01  0.1233E+00  0.6624E-01
      8.317  0.3749E-01  0.1276E+00  0.5540E-01
      8.405  0.3032E-01  0.6273E-01  0.3629E-01
      8.493  0.2779E-01  0.4770E-01  0.3545E-01
      8.580  0.2053E-01  0.7570E-01  0.5577E-01
      8.668  0.3269E-01  0.6430E-01  0.5737E-01
      8.756  0.1037E+00  0.1188E+00  0.8132E-01
      8.844  0.1249E+00  0.1717E+00  0.9544E-01
      8.932  0.7361E-01  0.1120E+00  0.5804E-01
      9.019  0.5124E-01  0.9429E-01  0.4838E-01
      9.107  0.8079E-01  0.1098E+00  0.6603E-01
      9.195  0.4985E-01  0.5901E-01  0.3966E-01
      9.283  0.3337E-01  0.5006E-01  0.2590E-01
      9.371  0.6291E-01  0.5364E-01  0.4830E-01
      9.459  0.9140E-01  0.7271E-01  0.6455E-01
      9.546  0.7667E-01  0.1420E+00  0.7438E-01
      9.634  0.7180E-01  0.1822E+00  0.8979E-01
      9.722  0.5992E-01  0.1193E+00  0.8247E-01
      9.810  0.7872E-01  0.1296E+00  0.8962E-01
      9.898  0.8743E-01  0.1496E+00  0.9969E-01
      9.985  0.6197E-01  0.1245E+00  0.8784E-01
     10.073  0.2773E-01  0.7162E-01  0.4882E-01
     10.161  0.4936E-01  0.1062E+00  0.4380E-01
     10.249  0.9221E-01  0.1685E+00  0.8901E-01
     10.337  0.7810E-01  0.1289E+00  0.7912E-01
     10.424  0.3337E-01  0.8009E-01  0.4412E-01
     10.512  0.3262E-01  0.8891E-01  0.4593E-01
     10.600  0.2979E-01  0.9151E-01  0.5578E-01
     10.688  0.4559E-01  0.1924E+00  0.1254E+00
     10.776  0.6653E-01  0.2064E+00  0.1257E+00
     10.863  0.3309E-01  0.1171E+00  0.7227E-01
     10.951  0.3120E-01  0.1092E+00  0.6472E-01
     11.039  0.5569E-01  0.1083E+00  0.5466E-01
     11.127  0.5563E-01  0.1136E+00  0.7692E-01
     11.215  0.4241E-01  0.1259E+00  0.9916E-01
     11.302  0.2930E-01  0.1041E+00  0.7134E-01
     11.390  0.2026E-01  0.9259E-01  0.4216E-01
     11.478  0.2409E-01  0.1117E+00  0.6521E-01
     11.566  0.3087E-01  0.1357E+00  0.8034E-01
     11.654  0.4034E-01  0.1694E+00  0.1057E+00
     11.741  0.4214E-01  0.2210E+00  0.1268E+00
     11.829  0.5644E-01  0.2094E+00  0.1336E+00
     11.917  0.7121E-01  0.1841E+00  0.1182E+00
     12.005  0.7268E-01  0.1690E+00  0.1129E+00
     12.093  0.6448E-01  0.1975E+00  0.1425E+00
     12.181  0.3550E-01  0.1562E+00  0.1146E+00
     12.268  0.1713E-01  0.9153E-01  0.6672E-01
     12.356  0.2307E-01  0.9394E-01  0.6065E-01
     12.444  0.2663E-01  0.9495E-01  0.6375E-01
     12.532  0.1828E-01  0.9584E-01  0.5612E-01
     12.620  0.2181E-01  0.1240E+00  0.7068E-01
     12.707  0.2830E-01  0.1485E+00  0.9643E-01
     12.795  0.4314E-01  0.1755E+00  0.1149E+00
     12.883  0.4868E-01  0.2130E+00  0.1200E+00
     12.971  0.3967E-01  0.2065E+00  0.1110E+00
     13.059  0.2492E-01  0.1577E+00  0.9520E-01
     13.146  0.1670E-01  0.1280E+00  0.8064E-01
     13.234  0.2532E-01  0.1691E+00  0.1161E+00
     13.322  0.2581E-01  0.1869E+00  0.1220E+00
     13.410  0.2119E-01  0.1768E+00  0.1303E+00
     13.498  0.3017E-01  0.1539E+00  0.1117E+00
     13.585  0.3997E-01  0.1650E+00  0.9364E-01
     13.673  0.3177E-01  0.1528E+00  0.9096E-01
     13.761  0.2602E-01  0.1353E+00  0.7693E-01
     13.849  0.2536E-01  0.1721E+00  0.7749E-01
     13.937  0.2778E-01  0.2096E+00  0.1212E+00
     14.024  0.2679E-01  0.1769E+00  0.1266E+00
     14.112  0.2049E-01  0.1441E+00  0.8589E-01
     14.200  0.1402E-01  0.9404E-01  0.5616E-01
     14.288  0.4817E-02  0.2400E-01  0.1978E-01
     14.376  0.2976E-04  0.4650E-03  0.3212E-03
     14.464 -0.1392E-03 -0.3443E-03 -0.3344E-03
     14.551  0.5565E-04  0.1215E-02  0.8133E-03
     14.639  0.1324E-04  0.2558E-03  0.1706E-03
     14.727 -0.2877E-05 -0.5517E-04 -0.3674E-04
     14.815 -0.2598E-06 -0.4984E-05 -0.3319E-05
     14.903 -0.3146E-08 -0.6034E-07 -0.4019E-07
     14.990 -0.7088E-11 -0.1359E-09 -0.9054E-10
     15.078 -0.3193E-14 -0.6125E-13 -0.4079E-13
     15.166 -0.2985E-18 -0.5726E-17 -0.3814E-17
     15.254  0.0000E+00  0.0000E+00  0.0000E+00
     15.342  0.0000E+00  0.0000E+00  0.0000E+00
     15.429  0.0000E+00  0.0000E+00  0.0000E+00
     15.517  0.0000E+00  0.0000E+00  0.0000E+00
     15.605  0.0000E+00  0.0000E+00  0.0000E+00
     15.693  0.0000E+00  0.0000E+00  0.0000E+00
     15.69281647    -10.64932949  301     -0.23754877      1.00000000
    -10.649  0.0000E+00  0.0000E+00  0.0000E+00
    -10.562  0.0000E+00  0.0000E+00  0.0000E+00
    -10.474  0.0000E+00  0.0000E+00  0.0000E+00
    -10.386  0.0000E+00  0.0000E+00  0.0000E+00
    -10.298 -0.2987E-33 -0.3548E-34 -0.2236E-35
    -10.210 -0.3517E-27 -0.4178E-28 -0.2632E-29
    -10.122 -0.8741E-22 -0.1038E-22 -0.6543E-24
    -10.035 -0.4396E-17 -0.5222E-18 -0.3290E-19
     -9.947 -0.4792E-13 -0.5692E-14 -0.3587E-15
     -9.859 -0.1064E-09 -0.1264E-10 -0.7962E-12
     -9.771 -0.4723E-07 -0.5611E-08 -0.3537E-09
     -9.683 -0.3919E-05 -0.4657E-06 -0.2949E-07
     -9.596 -0.4672E-04 -0.5589E-05 -0.3784E-06
     -9.508  0.9078E-04  0.9565E-05 -0.2117E-06
     -9.420  0.9350E-03  0.1102E-03  0.6325E-05
     -9.332  0.4440E-02  0.5713E-03  0.6538E-04
     -9.244  0.4915E-02  0.6349E-03  0.7362E-04
     -9.157  0.3872E-03  0.5180E-04  0.7069E-05
     -9.069  0.4241E-02  0.6524E-03  0.1584E-03
     -8.981  0.6257E-02  0.9916E-03  0.2702E-03
     -8.893  0.4348E-02  0.7419E-03  0.2332E-03
     -8.805  0.1724E-02  0.2364E-03  0.5429E-04
     -8.718  0.5193E-02  0.4113E-03  0.1363E-04
     -8.630  0.2311E-01  0.2653E-02  0.6880E-03
     -8.542  0.1835E-01  0.2681E-02  0.1042E-02
     -8.454  0.2452E-03  0.2543E-03  0.2185E-03
     -8.366  0.2846E-01  0.3264E-02  0.7978E-03
     -8.279  0.4702E-01  0.5512E-02  0.1298E-02
     -8.191  0.1193E-01  0.1774E-02  0.4931E-03
     -8.103 -0.5443E-03  0.7676E-04  0.6030E-04
     -8.015  0.9436E-02  0.1610E-02  0.1074E-02
     -7.927  0.5140E-01  0.7942E-02  0.4108E-02
     -7.840  0.4177E-01  0.6788E-02  0.3927E-02
     -7.752  0.2077E-01  0.2791E-02  0.2497E-02
     -7.664  0.4125E-01  0.4964E-02  0.3435E-02
     -7.576  0.1786E-01  0.2325E-02  0.1487E-02
     -7.488  0.2798E-01  0.2842E-02  0.2071E-02
     -7.400  0.5216E-01  0.7814E-02  0.7064E-02
     -7.313  0.6159E-01  0.1079E-01  0.1035E-01
     -7.225  0.4889E-01  0.8481E-02  0.8769E-02
     -7.137  0.2288E-01  0.4503E-02  0.5670E-02
     -7.049  0.4751E-01  0.7474E-02  0.8313E-02
     -6.961  0.4497E-01  0.5719E-02  0.9346E-02
     -6.874  0.4183E-01  0.7311E-02  0.1444E-01
     -6.786  0.8933E-01  0.1730E-01  0.3656E-01
     -6.698  0.9513E-01  0.1520E-01  0.5918E-01
     -6.610  0.1193E+00  0.1313E-01  0.7600E-01
     -6.522  0.1248E+00  0.1228E-01  0.5365E-01
     -6.435  0.9943E-01  0.1504E-01  0.6983E-01
     -6.347  0.1484E+00  0.2220E-01  0.1279E+00
     -6.259  0.1738E+00  0.2762E-01  0.1445E+00
     -6.171  0.1463E+00  0.2714E-01  0.1534E+00
     -6.083  0.9502E-01  0.2190E-01  0.1556E+00
     -5.996  0.1478E+00  0.2745E-01  0.2103E+00
     -5.908  0.2161E+00  0.3540E-01  0.2747E+00
     -5.820  0.1692E+00  0.3379E-01  0.2715E+00
     -5.732  0.1503E+00  0.2902E-01  0.3194E+00
     -5.644  0.1891E+00  0.3023E-01  0.4844E+00
     -5.557  0.2706E+00  0.4713E-01  0.7039E+00
     -5.469  0.2858E+00  0.5666E-01  0.7456E+00
     -5.381  0.2017E+00  0.5307E-01  0.6997E+00
     -5.293  0.1613E+00  0.5181E-01  0.6861E+00
     -5.205  0.9652E-01  0.4759E-01  0.7102E+00
     -5.117  0.5265E-01  0.4298E-01  0.6696E+00
     -5.030  0.4192E-01  0.3400E-01  0.5468E+00
     -4.942  0.3031E-01  0.2890E-01  0.4250E+00
     -4.854  0.2906E-01  0.5055E-01  0.7564E+00
     -4.766  0.2814E-01  0.6489E-01  0.9853E+00
     -4.678  0.2290E-01  0.5627E-01  0.7852E+00
     -4.591  0.1670E-01  0.4468E-01  0.6371E+00
     -4.503  0.2384E-01  0.3269E-01  0.6309E+00
     -4.415  0.3143E-01  0.2922E-01  0.7003E+00
     -4.327  0.2433E-01  0.2791E-01  0.6739E+00
     -4.239  0.2514E-01  0.2876E-01  0.6612E+00
     -4.152  0.3270E-01  0.3161E-01  0.6910E+00
     -4.064  0.3232E-01  0.3522E-01  0.7815E+00
     -3.976  0.3021E-01  0.3532E-01  0.8085E+00
     -3.888  0.3201E-01  0.3646E-01  0.7920E+00
     -3.800  0.3823E-01  0.3926E-01  0.8560E+00
     -3.713  0.3988E-01  0.3730E-01  0.1027E+01
     -3.625  0.4083E-01  0.3818E-01  0.1157E+01
     -3.537  0.4250E-01  0.3775E-01  0.1284E+01
     -3.449  0.4714E-01  0.3835E-01  0.1375E+01
     -3.361  0.4798E-01  0.4335E-01  0.1477E+01
     -3.274  0.5022E-01  0.5110E-01  0.1751E+01
     -3.186  0.6637E-01  0.5986E-01  0.1968E+01
     -3.098  0.7916E-01  0.6006E-01  0.1970E+01
     -3.010  0.7892E-01  0.5001E-01  0.1743E+01
     -2.922  0.7561E-01  0.4123E-01  0.1596E+01
     -2.834  0.5671E-01  0.3819E-01  0.1661E+01