  96  96   1   0
  0.3792881E+02  0.1151246E-08  0.1151044E-08  0.3175713E-08  0.0000000E+00
  1.000000000000000E-004
  CAR 
 unknown system                          
     14.66963388    -10.04485004  301     -0.97429529      1.00000000
    -10.045  0.0000E+00  0.0000E+00
     -9.962  0.0000E+00  0.0000E+00
     -9.880  0.0000E+00  0.0000E+00
     -9.798 -0.1695E-32 -0.1396E-33
     -9.715 -0.1450E-26 -0.1195E-27
     -9.633 -0.3160E-21 -0.2603E-22
     -9.551 -0.1748E-16 -0.1440E-17
     -9.468 -0.2364E-12 -0.1948E-13
     -9.386 -0.8212E-09 -0.6768E-10
     -9.303 -0.7043E-06 -0.5809E-07
     -9.221 -0.1452E-03 -0.1202E-04
     -9.139 -0.6784E-02 -0.5709E-03
     -9.056 -0.6030E-01 -0.5538E-02
     -8.974  0.2374E-01 -0.3582E-02
     -8.892  0.1380E+01  0.1101E+00
     -8.809  0.5222E+01  0.5402E+00
     -8.727  0.3783E+01  0.8519E+00
     -8.644  0.3662E+01  0.1154E+01
     -8.562  0.7858E+01  0.1801E+01
     -8.480  0.3447E+01  0.2085E+01
     -8.397  0.4087E+01  0.2422E+01
     -8.315  0.1117E+02  0.3341E+01
     -8.232  0.7777E+01  0.3982E+01
     -8.150  0.7924E+00  0.4047E+01
     -8.068  0.5678E+01  0.4515E+01
     -7.985  0.1505E+02  0.5755E+01
     -7.903  0.1244E+02  0.6779E+01
     -7.821  0.3084E+01  0.7033E+01
     -7.738  0.1074E+02  0.7918E+01
     -7.656  0.1610E+02  0.9245E+01
     -7.573  0.1307E+02  0.1032E+02
     -7.491  0.1303E+02  0.1140E+02
     -7.409  0.1050E+02  0.1226E+02
     -7.326  0.1068E+02  0.1314E+02
     -7.244  0.1689E+02  0.1453E+02
     -7.161  0.2089E+02  0.1625E+02
     -7.079  0.2317E+02  0.1816E+02
     -6.997  0.2748E+02  0.2042E+02
     -6.914  0.3383E+02  0.2321E+02
     -6.832  0.4571E+02  0.2698E+02
     -6.750  0.5696E+02  0.3167E+02
     -6.667  0.5916E+02  0.3654E+02
     -6.585  0.6559E+02  0.4195E+02
     -6.502  0.7635E+02  0.4824E+02
     -6.420  0.9243E+02  0.5585E+02
     -6.338  0.1056E+03  0.6455E+02
     -6.255  0.1170E+03  0.7419E+02
     -6.173  0.1314E+03  0.8501E+02
     -6.091  0.1442E+03  0.9689E+02
     -6.008  0.1513E+03  0.1094E+03
     -5.926  0.1589E+03  0.1224E+03
     -5.843  0.1598E+03  0.1356E+03
     -5.761  0.1572E+03  0.1486E+03
     -5.679  0.1686E+03  0.1625E+03
     -5.596  0.1725E+03  0.1767E+03
     -5.514  0.1635E+03  0.1901E+03
     -5.431  0.1562E+03  0.2030E+03
     -5.349  0.1518E+03  0.2155E+03
     -5.267  0.1547E+03  0.2282E+03
     -5.184  0.1504E+03  0.2406E+03
     -5.102  0.1469E+03  0.2527E+03
     -5.020  0.1503E+03  0.2651E+03
     -4.937  0.1482E+03  0.2773E+03
     -4.855  0.1465E+03  0.2894E+03
     -4.772  0.1551E+03  0.3022E+03
     -4.690  0.1618E+03  0.3155E+03
     -4.608  0.1767E+03  0.3301E+03
     -4.525  0.1919E+03  0.3459E+03
     -4.443  0.1956E+03  0.3620E+03
     -4.361  0.1956E+03  0.3781E+03
     -4.278  0.2034E+03  0.3949E+03
     -4.196  0.2054E+03  0.4118E+03
     -4.113  0.1962E+03  0.4279E+03
     -4.031  0.1953E+03  0.4440E+03
     -3.949  0.1941E+03  0.4600E+03
     -3.866  0.1919E+03  0.4758E+03
     -3.784  0.1932E+03  0.4918E+03
     -3.701  0.1874E+03  0.5072E+03
     -3.619  0.1779E+03  0.5219E+03
     -3.537  0.1829E+03  0.5369E+03
     -3.454  0.1834E+03  0.5520E+03
     -3.372  0.1793E+03  0.5668E+03
     -3.290  0.1808E+03  0.5817E+03
     -3.207  0.1856E+03  0.5970E+03
     -3.125  0.1875E+03  0.6124E+03
     -3.042  0.1894E+03  0.6280E+03
     -2.960  0.1905E+03  0.6437E+03
     -2.878  0.1855E+03  0.6590E+03
     -2.795  0.1733E+03  0.6733E+03
     -2.713  0.1666E+03  0.6870E+03
     -2.631  0.1729E+03  0.7012E+03
     -2.548  0.1790E+03  0.7160E+03
     -2.466  0.1814E+03  0.7309E+03
     -2.383  0.1896E+03  0.7466E+03
     -2.301  0.1908E+03  0.7623E+03
     -2.219  0.1836E+03  0.7774E+03
     -2.136  0.1857E+03  0.7927E+03
     -2.054  0.1928E+03  0.8086E+03
     -1.971  0.1876E+03  0.8240E+03
     -1.889  0.1860E+03  0.8394E+03
     -1.807  0.1918E+03  0.8552E+03
     -1.724  0.1944E+03  0.8712E+03
     -1.642  0.1926E+03  0.8870E+03
     -1.560  0.1944E+03  0.9030E+03
     -1.477  0.2029E+03  0.9198E+03
     -1.395  0.2128E+03  0.9373E+03
     -1.312  0.2185E+03  0.9553E+03
     -1.230  0.2076E+03  0.9724E+03
     -1.148  0.1941E+03  0.9884E+03
     -1.065  0.1618E+03  0.1002E+04
     -0.983  0.1049E+03  0.1010E+04
     -0.900  0.5829E+02  0.1015E+04
     -0.818  0.3223E+02  0.1018E+04
     -0.736  0.2727E+02  0.1020E+04
     -0.653  0.2239E+02  0.1022E+04
     -0.571  0.3193E+02  0.1025E+04
     -0.489  0.4789E+02  0.1028E+04
     -0.406  0.3935E+02  0.1032E+04
     -0.324  0.1998E+02  0.1033E+04
     -0.241  0.1725E+02  0.1035E+04
     -0.159  0.2771E+02  0.1037E+04
     -0.077  0.3912E+02  0.1040E+04
      0.006  0.4285E+02  0.1044E+04
      0.088  0.3785E+02  0.1047E+04
      0.170  0.2463E+02  0.1049E+04
      0.253  0.2270E+02  0.1051E+04
      0.335  0.1873E+02  0.1052E+04
      0.418  0.2578E+02  0.1054E+04
      0.500  0.3234E+02  0.1057E+04
      0.582  0.3058E+02  0.1060E+04
      0.665  0.3166E+02  0.1062E+04
      0.747  0.3315E+02  0.1065E+04
      0.830  0.3085E+02  0.1068E+04
      0.912  0.3208E+02  0.1070E+04
      0.994  0.3118E+02  0.1073E+04
      1.077  0.3054E+02  0.1075E+04
      1.159  0.2974E+02  0.1078E+04
      1.241  0.3023E+02  0.1080E+04
      1.324  0.2847E+02  0.1083E+04
      1.406  0.2219E+02  0.1084E+04
      1.489  0.2198E+02  0.1086E+04
      1.571  0.3188E+02  0.1089E+04
      1.653  0.3801E+02  0.1092E+04
      1.736  0.2819E+02  0.1094E+04
      1.818  0.2247E+02  0.1096E+04
      1.900  0.3028E+02  0.1099E+04
      1.983  0.3645E+02  0.1102E+04
      2.065  0.2616E+02  0.1104E+04
      2.148  0.2661E+02  0.1106E+04
      2.230  0.3194E+02  0.1109E+04
      2.312  0.3993E+02  0.1112E+04
      2.395  0.3377E+02  0.1115E+04
      2.477  0.2179E+02  0.1116E+04
      2.560  0.2272E+02  0.1118E+04
      2.642  0.2393E+02  0.1120E+04
      2.724  0.2391E+02  0.1122E+04
      2.807  0.2504E+02  0.1124E+04
      2.889  0.2296E+02  0.1126E+04
      2.971  0.2990E+02  0.1129E+04
      3.054  0.3092E+02  0.1131E+04
      3.136  0.1762E+02  0.1133E+04
      3.219  0.1903E+02  0.1134E+04
      3.301  0.2960E+02  0.1137E+04
      3.383  0.2895E+02  0.1139E+04
      3.466  0.2137E+02  0.1141E+04
      3.548  0.2086E+02  0.1143E+04
      3.630  0.2243E+02  0.1144E+04
      3.713  0.2532E+02  0.1147E+04
      3.795  0.3046E+02  0.1149E+04
      3.878  0.3101E+02  0.1152E+04
      3.960  0.3008E+02  0.1154E+04
      4.042  0.3298E+02  0.1157E+04
      4.125  0.3008E+02  0.1159E+04
      4.207  0.3316E+02  0.1162E+04
      4.290  0.3503E+02  0.1165E+04
      4.372  0.3831E+02  0.1168E+04
      4.454  0.3977E+02  0.1171E+04
      4.537  0.3627E+02  0.1174E+04
      4.619  0.3577E+02  0.1177E+04
      4.701  0.3715E+02  0.1180E+04
      4.784  0.4937E+02  0.1184E+04
      4.866  0.6331E+02  0.1190E+04
      4.949  0.5451E+02  0.1194E+04
      5.031  0.4635E+02  0.1198E+04
      5.113  0.4512E+02  0.1202E+04
      5.196  0.5104E+02  0.1206E+04
      5.278  0.4693E+02  0.1210E+04
      5.361  0.4820E+02  0.1214E+04
      5.443  0.5002E+02  0.1218E+04
      5.525  0.4243E+02  0.1221E+04
      5.608  0.5052E+02  0.1225E+04
      5.690  0.4995E+02  0.1230E+04
      5.772  0.4173E+02  0.1233E+04
      5.855  0.4660E+02  0.1237E+04
      5.937  0.5922E+02  0.1242E+04
      6.020  0.5933E+02  0.1247E+04
      6.102  0.5441E+02  0.1251E+04
      6.184  0.5092E+02  0.1255E+04
      6.267  0.4321E+02  0.1259E+04
      6.349  0.4366E+02  0.1262E+04
      6.431  0.4924E+02  0.1266E+04
      6.514  0.5152E+02  0.1271E+04
      6.596  0.5731E+02  0.1275E+04
      6.679  0.6825E+02  0.1281E+04
      6.761  0.7086E+02  0.1287E+04
      6.843  0.5514E+02  0.1291E+04
      6.926  0.4898E+02  0.1295E+04
      7.008  0.5944E+02  0.1300E+04
      7.091  0.6135E+02  0.1305E+04
      7.173  0.5662E+02  0.1310E+04
      7.255  0.5095E+02  0.1314E+04
      7.338  0.5095E+02  0.1318E+04
      7.420  0.5663E+02  0.1323E+04
      7.502  0.6008E+02  0.1328E+04
      7.585  0.5212E+02  0.1332E+04
      7.667  0.5575E+02  0.1337E+04
      7.750  0.5622E+02  0.1342E+04
      7.832  0.5024E+02  0.1346E+04
      7.914  0.5415E+02  0.1350E+04
      7.997  0.5831E+02  0.1355E+04
      8.079  0.5466E+02  0.1360E+04
      8.161  0.6251E+02  0.1365E+04
      8.244  0.7798E+02  0.1371E+04
      8.326  0.7344E+02  0.1377E+04
      8.409  0.5799E+02  0.1382E+04
      8.491  0.6325E+02  0.1387E+04
      8.573  0.6777E+02  0.1393E+04
      8.656  0.7189E+02  0.1399E+04
      8.738  0.7764E+02  0.1405E+04
      8.821  0.7300E+02  0.1411E+04
      8.903  0.5996E+02  0.1416E+04
      8.985  0.6128E+02  0.1421E+04
      9.068  0.6719E+02  0.1427E+04
      9.150  0.7529E+02  0.1433E+04
      9.232  0.7705E+02  0.1439E+04
      9.315  0.7286E+02  0.1445E+04
      9.397  0.6297E+02  0.1450E+04
      9.480  0.6590E+02  0.1456E+04
      9.562  0.7861E+02  0.1462E+04
      9.644  0.8669E+02  0.1469E+04
      9.727  0.8344E+02  0.1476E+04
      9.809  0.7183E+02  0.1482E+04
      9.892  0.6001E+02  0.1487E+04
      9.974  0.6055E+02  0.1492E+04
     10.056  0.6168E+02  0.1497E+04
     10.139  0.6115E+02  0.1502E+04
     10.221  0.7749E+02  0.1509E+04
     10.303  0.9492E+02  0.1516E+04
     10.386  0.9364E+02  0.1524E+04
     10.468  0.9091E+02  0.1532E+04
     10.551  0.8271E+02  0.1538E+04
     10.633  0.9244E+02  0.1546E+04
     10.715  0.1007E+03  0.1554E+04
     10.798  0.8914E+02  0.1562E+04
     10.880  0.8463E+02  0.1569E+04
     10.962  0.7880E+02  0.1575E+04
     11.045  0.8053E+02  0.1582E+04
     11.127  0.1020E+03  0.1590E+04
     11.210  0.8268E+02  0.1597E+04
     11.292  0.4580E+02  0.1601E+04
     11.374  0.6921E+02  0.1606E+04
     11.457  0.9111E+02  0.1614E+04
     11.539  0.1007E+03  0.1622E+04
     11.622  0.9849E+02  0.1630E+04
     11.704  0.9804E+02  0.1638E+04
     11.786  0.8069E+02  0.1645E+04
     11.869  0.8070E+02  0.1652E+04
     11.951  0.9332E+02  0.1659E+04
     12.033  0.1026E+03  0.1668E+04
     12.116  0.9654E+02  0.1676E+04
     12.198  0.8575E+02  0.1683E+04
     12.281  0.8082E+02  0.1690E+04
     12.363  0.7488E+02  0.1696E+04
     12.445  0.9311E+02  0.1703E+04
     12.528  0.9567E+02  0.1711E+04
     12.610  0.8289E+02  0.1718E+04
     12.692  0.8297E+02  0.1725E+04
     12.775  0.8836E+02  0.1732E+04
     12.857  0.9397E+02  0.1740E+04
     12.940  0.8259E+02  0.1747E+04
     13.022  0.1063E+03  0.1756E+04
     13.104  0.1065E+03  0.1764E+04
     13.187  0.7136E+02  0.1770E+04
     13.269  0.4270E+02  0.1774E+04
     13.352  0.3220E+02  0.1776E+04
     13.434  0.3263E+02  0.1779E+04
     13.516  0.1137E+02  0.1780E+04
     13.599  0.4824E+00  0.1780E+04
     13.681 -0.2049E+00  0.1780E+04
     13.763 -0.7507E-01  0.1780E+04
     13.846 -0.7096E-02  0.1780E+04
     13.928 -0.1470E-03  0.1780E+04
     14.011 -0.7066E-06  0.1780E+04
     14.093 -0.8220E-09  0.1780E+04
     14.175 -0.2365E-12  0.1780E+04
     14.258  0.0000E+00  0.1780E+04
     14.340  0.0000E+00  0.1780E+04
     14.422  0.0000E+00  0.1780E+04
     14.505  0.0000E+00  0.1780E+04
     14.587  0.0000E+00  0.1780E+04
     14.670  0.0000E+00  0.1780E+04
     14.66963388    -10.04485004  301     -0.97429529      1.00000000
    -10.045  0.0000E+00  0.0000E+00  0.0000E+00
     -9.962  0.0000E+00  0.0000E+00  0.0000E+00
     -9.880  0.0000E+00  0.0000E+00  0.0000E+00
     -9.798 -0.1620E-35 -0.2762E-36 -0.4931E-37
     -9.715 -0.1386E-29 -0.2364E-30 -0.4220E-31
     -9.633 -0.3021E-24 -0.5151E-25 -0.9193E-26
     -9.551 -0.1671E-19 -0.2849E-20 -0.5085E-21
     -9.468 -0.2260E-15 -0.3854E-16 -0.6879E-17
     -9.386 -0.7851E-12 -0.1339E-12 -0.2390E-13
     -9.303 -0.6733E-09 -0.1148E-09 -0.2050E-10
     -9.221 -0.1388E-06 -0.2368E-07 -0.4235E-08
     -9.139 -0.6491E-05 -0.1109E-05 -0.2004E-06
     -9.056 -0.5807E-04 -0.1008E-04 -0.1964E-05
     -8.974  0.1727E-04  0.7641E-06 -0.1960E-05
     -8.892  0.1330E-02  0.2312E-03  0.4559E-04
     -8.809  0.5102E-02  0.9185E-03  0.2098E-03
     -8.727  0.3664E-02  0.6596E-03  0.1490E-03
     -8.644  0.4108E-02  0.8135E-03  0.2767E-03
     -8.562  0.9129E-02  0.1817E-02  0.6305E-03
     -8.480  0.3383E-02  0.7208E-03  0.2907E-03
     -8.397  0.6140E-02  0.1115E-02  0.3765E-03
     -8.315  0.2430E-01  0.4119E-02  0.1154E-02
     -8.232  0.1877E-01  0.3113E-02  0.7966E-03
     -8.150  0.7659E-03  0.2305E-03  0.1789E-03
     -8.068  0.3401E-02  0.1230E-02  0.1101E-02
     -7.985  0.1733E-01  0.3615E-02  0.1984E-02
     -7.903  0.1587E-01  0.3159E-02  0.1623E-02
     -7.821  0.2414E-02  0.7841E-03  0.6647E-03
     -7.738  0.8723E-02  0.2518E-02  0.2417E-02
     -7.656  0.1661E-01  0.3915E-02  0.3525E-02
     -7.573  0.1165E-01  0.2756E-02  0.2987E-02
     -7.491  0.1098E-01  0.4414E-02  0.5151E-02
     -7.409  0.9163E-02  0.3529E-02  0.4007E-02
     -7.326  0.1003E-01  0.3099E-02  0.3694E-02
     -7.244  0.2051E-01  0.6280E-02  0.8196E-02
     -7.161  0.3134E-01  0.6712E-02  0.8251E-02
     -7.079  0.3529E-01  0.7162E-02  0.8725E-02
     -6.997  0.3157E-01  0.8896E-02  0.1491E-01
     -6.914  0.3614E-01  0.1064E-01  0.2812E-01
     -6.832  0.3862E-01  0.1304E-01  0.5281E-01
     -6.750  0.3227E-01  0.1630E-01  0.8529E-01
     -6.667  0.2910E-01  0.1711E-01  0.1011E+00
     -6.585  0.2954E-01  0.1642E-01  0.1038E+00
     -6.502  0.3100E-01  0.1655E-01  0.1125E+00
     -6.420  0.3677E-01  0.1749E-01  0.1279E+00
     -6.338  0.4191E-01  0.1867E-01  0.1198E+00
     -6.255  0.4348E-01  0.2195E-01  0.1368E+00
     -6.173  0.4143E-01  0.2296E-01  0.1771E+00
     -6.091  0.4099E-01  0.2133E-01  0.1951E+00
     -6.008  0.6330E-01  0.2379E-01  0.2127E+00
     -5.926  0.9845E-01  0.2806E-01  0.2383E+00
     -5.843  0.1112E+00  0.2894E-01  0.2582E+00
     -5.761  0.9615E-01  0.2883E-01  0.3135E+00
     -5.679  0.8534E-01  0.2819E-01  0.4315E+00
     -5.596  0.8104E-01  0.2586E-01  0.4623E+00
     -5.514  0.7695E-01  0.2649E-01  0.4240E+00
     -5.431  0.5328E-01  0.2586E-01  0.3521E+00
     -5.349  0.3603E-01  0.2122E-01  0.2932E+00
     -5.267  0.3955E-01  0.1954E-01  0.2934E+00
     -5.184  0.3819E-01  0.2029E-01  0.3028E+00
     -5.102  0.2994E-01  0.2230E-01  0.2964E+00
     -5.020  0.2844E-01  0.2380E-01  0.3222E+00
     -4.937  0.2623E-01  0.2103E-01  0.3391E+00
     -4.855  0.2385E-01  0.1861E-01  0.3300E+00
     -4.772  0.2263E-01  0.1996E-01  0.3255E+00
     -4.690  0.2503E-01  0.2044E-01  0.3583E+00
     -4.608  0.2405E-01  0.2196E-01  0.4382E+00
     -4.525  0.2459E-01  0.1976E-01  0.4969E+00
     -4.443  0.3034E-01  0.1616E-01  0.4849E+00
     -4.361  0.3741E-01  0.1661E-01  0.4644E+00
     -4.278  0.3408E-01  0.2216E-01  0.5043E+00
     -4.196  0.2738E-01  0.2733E-01  0.6024E+00
     -4.113  0.2483E-01  0.2206E-01  0.6029E+00
     -4.031  0.2564E-01  0.1850E-01  0.5923E+00
     -3.949  0.3086E-01  0.2192E-01  0.6536E+00
     -3.866  0.4058E-01  0.2686E-01  0.8042E+00
     -3.784  0.5107E-01  0.2818E-01  0.1025E+01
     -3.701  0.5173E-01  0.2527E-01  0.1006E+01
     -3.619  0.4238E-01  0.2292E-01  0.9524E+00
     -3.537  0.3831E-01  0.2289E-01  0.1172E+01
     -3.454  0.3839E-01  0.2153E-01  0.1251E+01
     -3.372  0.3101E-01  0.2562E-01  0.1216E+01
     -3.290  0.2585E-01  0.2722E-01  0.1234E+01
     -3.207  0.2778E-01  0.2656E-01  0.1260E+01
     -3.125  0.2944E-01  0.2915E-01  0.1218E+01
     -3.042  0.2943E-01  0.2777E-01  0.1288E+01
     -2.960  0.2948E-01  0.2718E-01  0.1451E+01
     -2.878  0.2588E-01  0.2637E-01  0.1544E+01
     -2.795  0.2432E-01  0.3020E-01  0.1751E+01
     -2.713  0.2458E-01  0.3460E-01  0.1977E+01
     -2.631  0.2323E-01  0.3193E-01  0.2208E+01
     -2.548  0.1944E-01  0.2761E-01  0.2539E+01
     -2.466  0.1806E-01  0.2811E-01  0.2885E+01
     -2.383  0.1959E-01  0.3070E-01  0.3107E+01
     -2.301  0.2009E-01  0.2826E-01  0.3122E+01
     -2.219  0.1821E-01  0.2776E-01  0.3259E+01
     -2.136  0.1776E-01  0.2943E-01  0.3645E+01
     -2.054  0.1711E-01  0.2779E-01  0.3954E+01
     -1.971  0.2131E-01  0.2535E-01  0.3979E+01
     -1.889  0.2463E-01  0.2599E-01  0.4070E+01
     -1.807  0.2191E-01  0.2625E-01  0.4068E+01
     -1.724  0.2439E-01  0.2413E-01  0.4188E+01
     -1.642  0.2921E-01  0.2286E-01  0.4122E+01
     -1.560  0.3506E-01  0.2177E-01  0.4172E+01
     -1.477  0.3913E-01  0.1972E-01  0.4384E+01
     -1.395  0.3850E-01  0.1685E-01  0.3756E+01
     -1.312  0.3850E-01  0.1672E-01  0.2999E+01
     -1.230  0.3590E-01  0.1701E-01  0.2319E+01
     -1.148  0.3227E-01  0.1835E-01  0.1885E+01
     -1.065  0.2840E-01  0.1771E-01  0.1542E+01
     -0.983  0.3137E-01  0.1675E-01  0.1028E+01
     -0.900  0.4884E-01  0.1708E-01  0.7344E+00
     -0.818  0.4293E-01  0.1567E-01  0.4977E+00
     -0.736  0.2774E-01  0.1684E-01  0.2819E+00
     -0.653  0.2806E-01  0.1408E-01  0.2057E+00
     -0.571  0.2803E-01  0.1733E-01  0.2754E+00
     -0.489  0.3109E-01  0.2327E-01  0.4057E+00
     -0.406  0.4055E-01  0.2196E-01  0.3432E+00
     -0.324  0.2328E-01  0.1706E-01  0.1896E+00
     -0.241  0.1299E-01  0.2112E-01  0.1527E+00
     -0.159  0.2585E-01  0.3197E-01  0.2217E+00
     -0.077  0.4944E-01  0.4986E-01  0.3489E+00
      0.006  0.6616E-01  0.4785E-01  0.3258E+00
      0.088  0.6088E-01  0.3836E-01  0.2207E+00
      0.170  0.3805E-01  0.2803E-01  0.1336E+00
      0.253  0.2654E-01  0.2876E-01  0.1308E+00
      0.335  0.1051E-01  0.1626E-01  0.9520E-01
      0.418  0.1881E-01  0.2879E-01  0.1531E+00
      0.500  0.2870E-01  0.4249E-01  0.1854E+00
      0.582  0.2728E-01  0.3655E-01  0.2025E+00
      0.665  0.2774E-01  0.3653E-01  0.2095E+00
      0.747  0.3182E-01  0.4465E-01  0.1767E+00
      0.830  0.4521E-01  0.4771E-01  0.1450E+00
      0.912  0.5584E-01  0.5307E-01  0.1988E+00
      0.994  0.4814E-01  0.5754E-01  0.1944E+00
      1.077  0.3344E-01  0.6694E-01  0.1098E+00
      1.159  0.3089E-01  0.5666E-01  0.1130E+00
      1.241  0.4916E-01  0.4727E-01  0.1661E+00
      1.324  0.4813E-01  0.4015E-01  0.1433E+00
      1.406  0.3004E-01  0.2442E-01  0.7448E-01
      1.489  0.1549E-01  0.1892E-01  0.7081E-01
      1.571  0.1597E-01  0.4373E-01  0.1185E+00
      1.653  0.2389E-01  0.6510E-01  0.1355E+00
      1.736  0.2423E-01  0.5093E-01  0.1384E+00
      1.818  0.2158E-01  0.4307E-01  0.1340E+00
      1.900  0.3021E-01  0.6308E-01  0.1436E+00
      1.983  0.3287E-01  0.7300E-01  0.1619E+00
      2.065  0.1935E-01  0.4687E-01  0.1091E+00
      2.148  0.2648E-01  0.4362E-01  0.9064E-01
      2.230  0.4556E-01  0.5806E-01  0.1009E+00
      2.312  0.5154E-01  0.7930E-01  0.1176E+00
      2.395  0.4653E-01  0.6911E-01  0.1042E+00
      2.477  0.3866E-01  0.4880E-01  0.8177E-01
      2.560  0.2617E-01  0.4191E-01  0.7868E-01
      2.642  0.1669E-01  0.3499E-01  0.6916E-01
      2.724  0.1791E-01  0.3189E-01  0.7123E-01
      2.807  0.1451E-01  0.3660E-01  0.6883E-01
      2.889  0.9036E-02  0.3474E-01  0.6332E-01
      2.971  0.9707E-02  0.4921E-01  0.8374E-01
      3.054  0.1513E-01  0.5461E-01  0.8885E-01
      3.136  0.1702E-01  0.3242E-01  0.4779E-01
      3.219  0.2244E-01  0.4144E-01  0.5010E-01
      3.301  0.3245E-01  0.5078E-01  0.8560E-01
      3.383  0.3685E-01  0.4090E-01  0.9067E-01
      3.466  0.4118E-01  0.3219E-01  0.6386E-01
      3.548  0.3765E-01  0.3996E-01  0.6158E-01
      3.630  0.2484E-01  0.4213E-01  0.6847E-01
      3.713  0.1614E-01  0.3040E-01  0.6878E-01
      3.795  0.1750E-01  0.3574E-01  0.7326E-01
      3.878  0.1713E-01  0.5045E-01  0.6372E-01
      3.960  0.1821E-01  0.4895E-01  0.5747E-01
      4.042  0.2424E-01  0.4243E-01  0.6722E-01
      4.125  0.2059E-01  0.2903E-01  0.5239E-01
      4.207  0.3247E-01  0.1937E-01  0.5071E-01
      4.290  0.5089E-01  0.3001E-01  0.5732E-01
      4.372  0.5200E-01  0.3945E-01  0.6316E-01
      4.454  0.4862E-01  0.4472E-01  0.7387E-01
      4.537  0.4742E-01  0.3755E-01  0.7696E-01
      4.619  0.5832E-01  0.4174E-01  0.7406E-01
      4.701  0.5278E-01  0.4155E-01  0.6501E-01
      4.784  0.5005E-01  0.4713E-01  0.7466E-01
      4.866  0.7659E-01  0.8519E-01  0.9940E-01
      4.949  0.6283E-01  0.8079E-01  0.9366E-01
      5.031  0.4582E-01  0.6112E-01  0.8157E-01
      5.113  0.6193E-01  0.4598E-01  0.7227E-01
      5.196  0.1179E+00  0.4446E-01  0.8840E-01
      5.278  0.9935E-01  0.4004E-01  0.7925E-01
      5.361  0.7202E-01  0.3623E-01  0.6536E-01
      5.443  0.8126E-01  0.4530E-01  0.6618E-01
      5.525  0.7331E-01  0.4381E-01  0.5677E-01
      5.608  0.9051E-01  0.5028E-01  0.7013E-01
      5.690  0.9493E-01  0.5347E-01  0.7239E-01
      5.772  0.8378E-01  0.5046E-01  0.6425E-01
      5.855  0.7453E-01  0.5320E-01  0.6079E-01
      5.937  0.8946E-01  0.6353E-01  0.6906E-01
      6.020  0.1018E+00  0.6917E-01  0.6732E-01
      6.102  0.9271E-01  0.6408E-01  0.5425E-01
      6.184  0.1002E+00  0.6574E-01  0.6010E-01
      6.267  0.8874E-01  0.6014E-01  0.5615E-01
      6.349  0.7252E-01  0.6827E-01  0.5825E-01
      6.431  0.6755E-01  0.8144E-01  0.6526E-01
      6.514  0.5760E-01  0.6808E-01  0.6409E-01
      6.596  0.6153E-01  0.7072E-01  0.6041E-01
      6.679  0.6985E-01  0.9742E-01  0.6785E-01
      6.761  0.5565E-01  0.1049E+00  0.7467E-01
      6.843  0.3813E-01  0.8475E-01  0.5854E-01
      6.926  0.4136E-01  0.7867E-01  0.4981E-01
      7.008  0.5663E-01  0.9520E-01  0.6135E-01
      7.091  0.7927E-01  0.9388E-01  0.6883E-01
      7.173  0.7399E-01  0.7757E-01  0.5302E-01
      7.255  0.4304E-01  0.7065E-01  0.3911E-01
      7.338  0.3238E-01  0.7071E-01  0.3879E-01
      7.420  0.4345E-01  0.8053E-01  0.5236E-01
      7.502  0.6652E-01  0.8332E-01  0.6005E-01
      7.585  0.6023E-01  0.6533E-01  0.5086E-01
      7.667  0.5623E-01  0.7857E-01  0.5081E-01
      7.750  0.5791E-01  0.8129E-01  0.5300E-01
      7.832  0.4774E-01  0.6457E-01  0.4816E-01
      7.914  0.6464E-01  0.6734E-01  0.4581E-01
      7.997  0.6551E-01  0.7176E-01  0.5102E-01
      8.079  0.4283E-01  0.7056E-01  0.5007E-01
      8.161  0.5145E-01  0.7983E-01  0.5804E-01
      8.244  0.6005E-01  0.8768E-01  0.6905E-01
      8.326  0.4956E-01  0.7823E-01  0.6136E-01
      8.409  0.5597E-01  0.6663E-01  0.5239E-01
      8.491  0.7488E-01  0.7969E-01  0.6594E-01
      8.573  0.7709E-01  0.8055E-01  0.7258E-01
      8.656  0.8072E-01  0.8464E-01  0.7516E-01
      8.738  0.8157E-01  0.1012E+00  0.7851E-01
      8.821  0.7115E-01  0.1068E+00  0.7445E-01
      8.903  0.6931E-01  0.8086E-01  0.5826E-01
      8.985  0.6198E-01  0.7138E-01  0.5549E-01
      9.068  0.7143E-01  0.7518E-01  0.5690E-01
      9.150  0.7805E-01  0.8883E-01  0.6049E-01
      9.232  0.6277E-01  0.1005E+00  0.7934E-01
      9.315  0.7519E-01  0.1105E+00  0.8210E-01
      9.397  0.7585E-01  0.1016E+00  0.6640E-01
      9.480  0.5816E-01  0.8954E-01  0.6559E-01
      9.562  0.4843E-01  0.9580E-01  0.7277E-01
      9.644  0.6010E-01  0.1004E+00  0.7950E-01
      9.727  0.7885E-01  0.9676E-01  0.7080E-01
      9.809  0.6818E-01  0.8985E-01  0.5794E-01
      9.892  0.3688E-01  0.8093E-01  0.5869E-01
      9.974  0.3505E-01  0.9745E-01  0.6926E-01
     10.056  0.5444E-01  0.9849E-01  0.6878E-01
     10.139  0.4841E-01  0.8435E-01  0.6844E-01
     10.221  0.3944E-01  0.1090E+00  0.7838E-01
     10.303  0.4592E-01  0.1441E+00  0.9282E-01
     10.386  0.5267E-01  0.1372E+00  0.9014E-01
     10.468  0.5610E-01  0.1474E+00  0.9119E-01
     10.551  0.5549E-01  0.1349E+00  0.8013E-01
     10.633  0.5266E-01  0.1325E+00  0.7426E-01
     10.715  0.5091E-01  0.1356E+00  0.8421E-01
     10.798  0.5522E-01  0.1075E+00  0.7273E-01
     10.880  0.7027E-01  0.9720E-01  0.6412E-01
     10.962  0.7798E-01  0.9711E-01  0.6127E-01
     11.045  0.6575E-01  0.9764E-01  0.7710E-01
     11.127  0.5578E-01  0.1235E+00  0.9297E-01
     11.210  0.3649E-01  0.1101E+00  0.6397E-01
     11.292  0.1781E-01  0.6456E-01  0.3884E-01
     11.374  0.3347E-01  0.9300E-01  0.6518E-01
     11.457  0.4390E-01  0.1169E+00  0.8887E-01
     11.539  0.4048E-01  0.1398E+00  0.1079E+00
     11.622  0.4030E-01  0.1547E+00  0.1177E+00
     11.704  0.4601E-01  0.1652E+00  0.1037E+00
     11.786  0.4082E-01  0.1309E+00  0.6803E-01
     11.869  0.4468E-01  0.1250E+00  0.6452E-01
     11.951  0.4886E-01  0.1339E+00  0.8137E-01
     12.033  0.3882E-01  0.1258E+00  0.1065E+00
     12.116  0.3611E-01  0.1142E+00  0.8789E-01
     12.198  0.3396E-01  0.9811E-01  0.6713E-01
     12.281  0.3595E-01  0.9691E-01  0.7114E-01
     12.363  0.3761E-01  0.1129E+00  0.7235E-01
     12.445  0.4774E-01  0.1494E+00  0.8777E-01
     12.528  0.4910E-01  0.1422E+00  0.8976E-01
     12.610  0.4701E-01  0.1315E+00  0.8693E-01
     12.692  0.4648E-01  0.1535E+00  0.9143E-01
     12.775  0.3593E-01  0.1367E+00  0.9036E-01
     12.857  0.3505E-01  0.1272E+00  0.8783E-01
     12.940  0.3114E-01  0.1188E+00  0.7693E-01
     13.022  0.3007E-01  0.1531E+00  0.9044E-01
     13.104  0.2782E-01  0.1672E+00  0.8724E-01
     13.187  0.2043E-01  0.1167E+00  0.6069E-01
     13.269  0.1287E-01  0.5033E-01  0.4101E-01
     13.352  0.6843E-02  0.2936E-01  0.3058E-01
     13.434  0.7689E-02  0.4058E-01  0.2603E-01
     13.516  0.3452E-02  0.1801E-01  0.8289E-02
     13.599  0.5650E-04  0.1697E-02  0.6727E-03
     13.681 -0.1277E-03 -0.2697E-03 -0.3736E-04
     13.763 -0.1314E-04 -0.1347E-03 -0.7535E-04
     13.846 -0.4134E-06 -0.1256E-04 -0.8342E-05
     13.928 -0.4934E-08 -0.2571E-06 -0.1773E-06
     14.011 -0.1951E-10 -0.1231E-08 -0.8571E-09
     14.093 -0.2140E-13 -0.1430E-11 -0.9983E-12
     14.175 -0.6011E-17 -0.4113E-15 -0.2874E-15
     14.258  0.0000E+00  0.0000E+00  0.0000E+00
     14.340  0.0000E+00  0.0000E+00  0.0000E+00
     14.422  0.0000E+00  0.0000E+00  0.0000E+00
     14.505  0.0000E+00  0.0000E+00  0.0000E+00
     14.587  0.0000E+00  0.0000E+00  0.0000E+00
     14.670  0.0000E+00  0.0000E+00  0.0000E+00
     14.66963388    -10.04485004  301     -0.97429529      1.00000000
    -10.045  0.0000E+00  0.0000E+00  0.0000E+00
     -9.962  0.0000E+00  0.0000E+00  0.0000E+00
     -9.880  0.0000E+00  0.0000E+00  0.0000E+00
     -9.798 -0.1647E-35 -0.2398E-36 -0.2488E-37
     -9.715 -0.1409E-29 -0.2052E-30 -0.2130E-31
     -9.633 -0.3071E-24 -0.4471E-25 -0.4640E-26
     -9.551 -0.1699E-19 -0.2473E-20 -0.2567E-21
     -9.468 -0.2298E-15 -0.3346E-16 -0.3472E-17
     -9.386 -0.7981E-12 -0.1162E-12 -0.1206E-13
     -9.303 -0.6844E-09 -0.9967E-10 -0.1035E-10
     -9.221 -0.1411E-06 -0.2056E-07 -0.2140E-08
     -9.139 -0.6592E-05 -0.9624E-06 -0.1019E-06
     -9.056 -0.5854E-04 -0.8700E-05 -0.1044E-05
     -8.974  0.2397E-04  0.1255E-05 -0.1649E-05
     -8.892  0.1339E-02  0.1996E-03  0.2437E-04
     -8.809  0.5055E-02  0.7857E-03  0.1206E-03
     -8.727  0.3666E-02  0.5689E-03  0.8548E-04
     -8.644  0.3507E-02  0.6273E-03  0.1727E-03
     -8.562  0.7266E-02  0.1345E-02  0.4004E-03
     -8.480  0.2632E-02  0.5372E-03  0.1886E-03
     -8.397  0.7573E-02  0.1152E-02  0.2734E-03
     -8.315  0.2653E-01  0.3884E-02  0.8524E-03
     -8.232  0.2080E-01  0.2990E-02  0.6071E-03
     -8.150  0.1632E-02  0.3177E-03  0.1354E-03
     -8.068  0.1350E-01  0.2426E-02  0.9325E-03
     -7.985  0.3812E-01  0.5960E-02  0.1778E-02
     -7.903  0.2720E-01  0.4410E-02  0.1442E-02
     -7.821  0.5515E-02  0.1205E-02  0.6612E-03
     -7.738  0.2091E-01  0.3984E-02  0.2275E-02
     -7.656  0.3344E-01  0.5858E-02  0.2798E-02
     -7.573  0.2374E-01  0.4243E-02  0.2242E-02
     -7.491  0.1751E-01  0.5553E-02  0.4647E-02
     -7.409  0.1437E-01  0.4494E-02  0.3601E-02
     -7.326  0.1266E-01  0.4100E-02  0.3540E-02
     -7.244  0.1511E-01  0.7902E-02  0.9049E-02
     -7.161  0.1337E-01  0.7103E-02  0.1055E-01
     -7.079  0.1021E-01  0.6743E-02  0.1381E-01
     -6.997  0.6686E-02  0.9367E-02  0.1953E-01
     -6.914  0.1202E-01  0.1310E-01  0.3153E-01
     -6.832  0.2157E-01  0.1596E-01  0.5634E-01
     -6.750  0.3250E-01  0.1975E-01  0.9167E-01
     -6.667  0.3873E-01  0.1670E-01  0.1025E+00
     -6.585  0.4417E-01  0.1350E-01  0.9906E-01
     -6.502  0.4005E-01  0.1511E-01  0.1126E+00
     -6.420  0.4341E-01  0.2035E-01  0.1445E+00
     -6.338  0.4538E-01  0.2491E-01  0.1698E+00
     -6.255  0.4861E-01  0.2350E-01  0.2049E+00
     -6.173  0.8840E-01  0.2480E-01  0.2394E+00
     -6.091  0.1402E+00  0.3140E-01  0.2818E+00
     -6.008  0.1363E+00  0.3408E-01  0.3237E+00
     -5.926  0.1112E+00  0.3262E-01  0.3992E+00
     -5.843  0.1061E+00  0.3007E-01  0.4924E+00
     -5.761  0.8702E-01  0.2902E-01  0.4873E+00
     -5.679  0.6587E-01  0.3230E-01  0.4226E+00
     -5.596  0.5073E-01  0.3256E-01  0.3250E+00
     -5.514  0.4136E-01  0.2750E-01  0.2711E+00
     -5.431  0.3232E-01  0.2612E-01  0.2708E+00
     -5.349  0.2046E-01  0.2832E-01  0.2988E+00
     -5.267  0.1650E-01  0.3028E-01  0.3637E+00
     -5.184  0.2486E-01  0.2860E-01  0.3663E+00
     -5.102  0.2585E-01  0.2560E-01  0.2877E+00
     -5.020  0.1789E-01  0.2402E-01  0.2811E+00
     -4.937  0.2300E-01  0.2269E-01  0.3066E+00
     -4.855  0.2492E-01  0.1847E-01  0.3129E+00
     -4.772  0.1902E-01  0.1548E-01  0.3609E+00
     -4.690  0.2047E-01  0.1496E-01  0.4166E+00
     -4.608  0.2599E-01  0.1811E-01  0.4591E+00
     -4.525  0.2917E-01  0.2270E-01  0.5117E+00
     -4.443  0.2857E-01  0.2509E-01  0.5318E+00
     -4.361  0.2401E-01  0.2437E-01  0.5224E+00
     -4.278  0.2128E-01  0.2390E-01  0.5364E+00
     -4.196  0.1952E-01  0.2367E-01  0.5009E+00
     -4.113  0.1512E-01  0.2411E-01  0.4802E+00
     -4.031  0.1320E-01  0.2421E-01  0.5862E+00
     -3.949  0.1466E-01  0.2087E-01  0.6414E+00
     -3.866  0.1823E-01  0.1977E-01  0.7120E+00
     -3.784  0.2103E-01  0.2025E-01  0.8278E+00
     -3.701  0.2269E-01  0.1879E-01  0.8536E+00
     -3.619  0.2359E-01  0.1958E-01  0.9117E+00
     -3.537  0.2549E-01  0.2351E-01  0.9845E+00
     -3.454  0.2754E-01  0.2295E-01  0.9606E+00
     -3.372  0.2935E-01  0.1969E-01  0.1017E+01
     -3.290  0.3262E-01  0.1767E-01  0.1053E+01
     -3.207  0.3359E-01  0.2136E-01  0.1097E+01
     -3.125  0.3326E-01  0.2417E-01  0.1180E+01
     -3.042  0.3592E-01  0.2147E-01  0.1252E+01
     -2.960  0.3888E-01  0.2335E-01  0.1331E+01
     -2.878  0.4148E-01  0.2563E-01  0.1257E+01
     -2.795  0.4258E-01  0.2733E-01  0.1347E+01
     -2.713  0.3250E-01  0.2460E-01  0.1524E+01