  64  64   1   0
  0.3605524E+02  0.1008881E-08  0.1008881E-08  0.2617811E-08  0.1000000E-15
  1.000000000000000E-004
  CAR 
 unknown system                          
      7.31414053    -12.73398090  301     -1.86027317      1.00000000
    -12.734  0.0000E+00  0.0000E+00
    -12.667  0.0000E+00  0.0000E+00
    -12.600  0.0000E+00  0.0000E+00
    -12.533  0.0000E+00  0.0000E+00
    -12.467  0.0000E+00  0.0000E+00
    -12.400 -0.1628E-31 -0.1088E-32
    -12.333 -0.3637E-29 -0.2442E-30
    -12.266 -0.6513E-27 -0.4377E-28
    -12.199 -0.9307E-25 -0.6263E-26
    -12.133 -0.1061E-22 -0.7155E-24
    -12.066 -0.9654E-21 -0.6523E-22
    -11.999 -0.7004E-19 -0.4746E-20
    -11.932 -0.4051E-17 -0.2755E-18
    -11.865 -0.1810E-15 -0.1237E-16
    -11.798 -0.6620E-14 -0.4548E-15
    -11.732 -0.1926E-12 -0.1333E-13
    -11.665 -0.4456E-11 -0.3111E-12
    -11.598 -0.8189E-10 -0.5784E-11
    -11.531 -0.1195E-08 -0.8562E-10
    -11.464 -0.1382E-07 -0.1009E-08
    -11.397 -0.1268E-06 -0.9480E-08
    -11.331 -0.9206E-06 -0.7100E-07
    -11.264 -0.5291E-05 -0.4246E-06
    -11.197 -0.2402E-04 -0.2030E-05
    -11.130 -0.8576E-04 -0.7761E-05
    -11.063 -0.2371E-03 -0.2361E-04
    -10.996 -0.4853E-03 -0.5604E-04
    -10.930 -0.6206E-03 -0.9751E-04
    -10.863  0.2208E-04 -0.9603E-04
    -10.796  0.2470E-02  0.6903E-04
    -10.729  0.7155E-02  0.5472E-03
    -10.662  0.1259E-01  0.1388E-02
    -10.596  0.1585E-01  0.2448E-02
    -10.529  0.1577E-01  0.3502E-02
    -10.462  0.1509E-01  0.4510E-02
    -10.395  0.1741E-01  0.5673E-02
    -10.328  0.2228E-01  0.7162E-02
    -10.261  0.2507E-01  0.8838E-02
    -10.195  0.2191E-01  0.1030E-01
    -10.128  0.1402E-01  0.1124E-01
    -10.061  0.7491E-02  0.1174E-01
     -9.994  0.8473E-02  0.1231E-01
     -9.927  0.1735E-01  0.1347E-01
     -9.860  0.2729E-01  0.1529E-01
     -9.794  0.3063E-01  0.1734E-01
     -9.727  0.2670E-01  0.1912E-01
     -9.660  0.2109E-01  0.2053E-01
     -9.593  0.1802E-01  0.2173E-01
     -9.526  0.1728E-01  0.2289E-01
     -9.459  0.1783E-01  0.2408E-01
     -9.393  0.2074E-01  0.2547E-01
     -9.326  0.2837E-01  0.2736E-01
     -9.259  0.4158E-01  0.3014E-01
     -9.192  0.5634E-01  0.3391E-01
     -9.125  0.6377E-01  0.3817E-01
     -9.058  0.5730E-01  0.4200E-01
     -8.992  0.4042E-01  0.4470E-01
     -8.925  0.2466E-01  0.4635E-01
     -8.858  0.1943E-01  0.4764E-01
     -8.791  0.2481E-01  0.4930E-01
     -8.724  0.3377E-01  0.5156E-01
     -8.658  0.4023E-01  0.5425E-01
     -8.591  0.4424E-01  0.5720E-01
     -8.524  0.4873E-01  0.6046E-01
     -8.457  0.5306E-01  0.6401E-01
     -8.390  0.5354E-01  0.6758E-01
     -8.323  0.4942E-01  0.7089E-01
     -8.257  0.4424E-01  0.7384E-01
     -8.190  0.4210E-01  0.7666E-01
     -8.123  0.4421E-01  0.7961E-01
     -8.056  0.4758E-01  0.8279E-01
     -7.989  0.4761E-01  0.8597E-01
     -7.922  0.4385E-01  0.8890E-01
     -7.856  0.4178E-01  0.9169E-01
     -7.789  0.4672E-01  0.9482E-01
     -7.722  0.5806E-01  0.9870E-01
     -7.655  0.7194E-01  0.1035E+00
     -7.588  0.8699E-01  0.1093E+00
     -7.521  0.1025E+00  0.1162E+00
     -7.455  0.1121E+00  0.1237E+00
     -7.388  0.1064E+00  0.1308E+00
     -7.321  0.8597E-01  0.1365E+00
     -7.254  0.6419E-01  0.1408E+00
     -7.187  0.5433E-01  0.1444E+00
     -7.121  0.5951E-01  0.1484E+00
     -7.054  0.7986E-01  0.1537E+00
     -6.987  0.1182E+00  0.1616E+00
     -6.920  0.1681E+00  0.1729E+00
     -6.853  0.2076E+00  0.1867E+00
     -6.786  0.2197E+00  0.2014E+00
     -6.720  0.2143E+00  0.2158E+00
     -6.653  0.2166E+00  0.2302E+00
     -6.586  0.2386E+00  0.2462E+00
     -6.519  0.2701E+00  0.2642E+00
     -6.452  0.2957E+00  0.2840E+00
     -6.385  0.3134E+00  0.3049E+00
     -6.319  0.3363E+00  0.3274E+00
     -6.252  0.3789E+00  0.3527E+00
     -6.185  0.4445E+00  0.3824E+00
     -6.118  0.5231E+00  0.4174E+00
     -6.051  0.5955E+00  0.4572E+00
     -5.984  0.6396E+00  0.4999E+00
     -5.918  0.6426E+00  0.5429E+00
     -5.851  0.6129E+00  0.5838E+00
     -5.784  0.5770E+00  0.6224E+00
     -5.717  0.5641E+00  0.6601E+00
     -5.650  0.5845E+00  0.6991E+00
     -5.583  0.6213E+00  0.7407E+00
     -5.517  0.6457E+00  0.7838E+00
     -5.450  0.6458E+00  0.8270E+00
     -5.383  0.6355E+00  0.8694E+00
     -5.316  0.6374E+00  0.9120E+00
     -5.249  0.6629E+00  0.9563E+00
     -5.183  0.7129E+00  0.1004E+01
     -5.116  0.7862E+00  0.1057E+01
     -5.049  0.8778E+00  0.1115E+01
     -4.982  0.9689E+00  0.1180E+01
     -4.915  0.1035E+01  0.1249E+01
     -4.848  0.1076E+01  0.1321E+01
     -4.782  0.1131E+01  0.1397E+01
     -4.715  0.1238E+01  0.1479E+01
     -4.648  0.1380E+01  0.1572E+01
     -4.581  0.1478E+01  0.1670E+01
     -4.514  0.1448E+01  0.1767E+01
     -4.447  0.1288E+01  0.1853E+01
     -4.381  0.1099E+01  0.1927E+01
     -4.314  0.1000E+01  0.1993E+01
     -4.247  0.1023E+01  0.2062E+01
     -4.180  0.1089E+01  0.2135E+01
     -4.113  0.1106E+01  0.2209E+01
     -4.046  0.1070E+01  0.2280E+01
     -3.980  0.1056E+01  0.2351E+01
     -3.913  0.1117E+01  0.2425E+01
     -3.846  0.1224E+01  0.2507E+01
     -3.779  0.1314E+01  0.2595E+01
     -3.712  0.1377E+01  0.2687E+01
     -3.645  0.1471E+01  0.2785E+01
     -3.579  0.1619E+01  0.2893E+01
     -3.512  0.1735E+01  0.3009E+01
     -3.445  0.1687E+01  0.3122E+01
     -3.378  0.1432E+01  0.3218E+01
     -3.311  0.1052E+01  0.3288E+01
     -3.245  0.6794E+00  0.3334E+01
     -3.178  0.4047E+00  0.3361E+01
     -3.111  0.2405E+00  0.3377E+01
     -3.044  0.1501E+00  0.3387E+01
     -2.977  0.9655E-01  0.3393E+01
     -2.910  0.7041E-01  0.3398E+01
     -2.844  0.7779E-01  0.3403E+01
     -2.777  0.1119E+00  0.3410E+01
     -2.710  0.1443E+00  0.3420E+01
     -2.643  0.1468E+00  0.3430E+01
     -2.576  0.1189E+00  0.3438E+01
     -2.509  0.8970E-01  0.3444E+01
     -2.443  0.8671E-01  0.3450E+01
     -2.376  0.1051E+00  0.3457E+01
     -2.309  0.1143E+00  0.3464E+01
     -2.242  0.9505E-01  0.3471E+01
     -2.175  0.6390E-01  0.3475E+01
     -2.108  0.5750E-01  0.3479E+01
     -2.042  0.9530E-01  0.3485E+01
     -1.975  0.1595E+00  0.3496E+01
     -1.908  0.2085E+00  0.3510E+01
     -1.841  0.2102E+00  0.3524E+01
     -1.774  0.1649E+00  0.3535E+01
     -1.708  0.1008E+00  0.3542E+01
     -1.641  0.4675E-01  0.3545E+01
     -1.574  0.1542E-01  0.3546E+01
     -1.507  0.7281E-02  0.3546E+01
     -1.440  0.2119E-01  0.3548E+01
     -1.373  0.5485E-01  0.3551E+01
     -1.307  0.9951E-01  0.3558E+01
     -1.240  0.1415E+00  0.3567E+01
     -1.173  0.1711E+00  0.3579E+01
     -1.106  0.1847E+00  0.3591E+01
     -1.039  0.1783E+00  0.3603E+01
     -0.972  0.1469E+00  0.3613E+01
     -0.906  0.9952E-01  0.3620E+01
     -0.839  0.6287E-01  0.3624E+01
     -0.772  0.6061E-01  0.3628E+01
     -0.705  0.8850E-01  0.3634E+01
     -0.638  0.1182E+00  0.3642E+01
     -0.571  0.1246E+00  0.3650E+01
     -0.505  0.1060E+00  0.3657E+01
     -0.438  0.7963E-01  0.3662E+01
     -0.371  0.6358E-01  0.3667E+01
     -0.304  0.6256E-01  0.3671E+01
     -0.237  0.6719E-01  0.3675E+01
     -0.170  0.6690E-01  0.3680E+01
     -0.104  0.6424E-01  0.3684E+01
     -0.037  0.7372E-01  0.3689E+01
      0.030  0.1038E+00  0.3696E+01
      0.097  0.1428E+00  0.3705E+01
      0.164  0.1668E+00  0.3717E+01
      0.230  0.1621E+00  0.3727E+01
      0.297  0.1371E+00  0.3737E+01
      0.364  0.1110E+00  0.3744E+01
      0.431  0.9506E-01  0.3750E+01
      0.498  0.8756E-01  0.3756E+01
      0.565  0.8186E-01  0.3762E+01
      0.631  0.7288E-01  0.3767E+01
      0.698  0.5946E-01  0.3771E+01
      0.765  0.4596E-01  0.3774E+01
      0.832  0.4116E-01  0.3776E+01
      0.899  0.5302E-01  0.3780E+01
      0.966  0.8159E-01  0.3785E+01
      1.032  0.1146E+00  0.3793E+01
      1.099  0.1314E+00  0.3802E+01
      1.166  0.1189E+00  0.3810E+01
      1.233  0.8573E-01  0.3815E+01
      1.300  0.5734E-01  0.3819E+01
      1.367  0.5284E-01  0.3823E+01
      1.433  0.6967E-01  0.3827E+01
      1.500  0.9261E-01  0.3834E+01
      1.567  0.1093E+00  0.3841E+01
      1.634  0.1131E+00  0.3849E+01
      1.701  0.1002E+00  0.3855E+01
      1.767  0.7199E-01  0.3860E+01
      1.834  0.3753E-01  0.3863E+01
      1.901  0.1030E-01  0.3863E+01
      1.968  0.4728E-03  0.3863E+01
      2.035  0.1076E-01  0.3864E+01
      2.102  0.3523E-01  0.3866E+01
      2.168  0.6050E-01  0.3870E+01
      2.235  0.7262E-01  0.3875E+01
      2.302  0.6736E-01  0.3880E+01
      2.369  0.5441E-01  0.3883E+01
      2.436  0.5004E-01  0.3887E+01
      2.503  0.6326E-01  0.3891E+01
      2.569  0.8700E-01  0.3897E+01
      2.636  0.1053E+00  0.3904E+01
      2.703  0.1119E+00  0.3911E+01
      2.770  0.1179E+00  0.3919E+01
      2.837  0.1346E+00  0.3928E+01
      2.904  0.1556E+00  0.3939E+01
      2.970  0.1632E+00  0.3949E+01
      3.037  0.1517E+00  0.3960E+01
      3.104  0.1323E+00  0.3968E+01
      3.171  0.1161E+00  0.3976E+01
      3.238  0.1045E+00  0.3983E+01
      3.305  0.9872E-01  0.3990E+01
      3.371  0.1039E+00  0.3997E+01
      3.438  0.1196E+00  0.4005E+01
      3.505  0.1351E+00  0.4014E+01
      3.572  0.1395E+00  0.4023E+01
      3.639  0.1355E+00  0.4032E+01
      3.705  0.1409E+00  0.4042E+01
      3.772  0.1702E+00  0.4053E+01
      3.839  0.2122E+00  0.4067E+01
      3.906  0.2367E+00  0.4083E+01
      3.973  0.2265E+00  0.4098E+01
      4.040  0.1939E+00  0.4111E+01
      4.106  0.1643E+00  0.4122E+01
      4.173  0.1540E+00  0.4132E+01
      4.240  0.1633E+00  0.4143E+01
      4.307  0.1810E+00  0.4155E+01
      4.374  0.1913E+00  0.4168E+01
      4.441  0.1840E+00  0.4180E+01
      4.507  0.1617E+00  0.4191E+01
      4.574  0.1401E+00  0.4201E+01
      4.641  0.1389E+00  0.4210E+01
      4.708  0.1674E+00  0.4221E+01
      4.775  0.2125E+00  0.4235E+01
      4.842  0.2458E+00  0.4252E+01
      4.908  0.2493E+00  0.4268E+01
      4.975  0.2296E+00  0.4284E+01
      5.042  0.2003E+00  0.4297E+01
      5.109  0.1621E+00  0.4308E+01
      5.176  0.1117E+00  0.4315E+01
      5.243  0.5892E-01  0.4319E+01
      5.309  0.1994E-01  0.4321E+01
      5.376  0.1122E-02  0.4321E+01
      5.443 -0.3615E-02  0.4320E+01
      5.510 -0.2995E-02  0.4320E+01
      5.577 -0.1702E-02  0.4320E+01
      5.643 -0.8473E-03  0.4320E+01
      5.710 -0.3735E-03  0.4320E+01
      5.777 -0.1375E-03  0.4320E+01
      5.844 -0.4046E-04  0.4320E+01
      5.911 -0.9348E-05  0.4320E+01
      5.978 -0.1689E-05  0.4320E+01
      6.044 -0.2389E-06  0.4320E+01
      6.111 -0.2654E-07  0.4320E+01
      6.178 -0.2322E-08  0.4320E+01
      6.245 -0.1605E-09  0.4320E+01
      6.312 -0.8776E-11  0.4320E+01
      6.379 -0.3806E-12  0.4320E+01
      6.445 -0.1310E-13  0.4320E+01
      6.512 -0.3593E-15  0.4320E+01
      6.579 -0.8307E-17  0.4320E+01
      6.646  0.0000E+00  0.4320E+01
      6.713  0.0000E+00  0.4320E+01
      6.780  0.0000E+00  0.4320E+01
      6.846  0.0000E+00  0.4320E+01
      6.913  0.0000E+00  0.4320E+01
      6.980  0.0000E+00  0.4320E+01
      7.047  0.0000E+00  0.4320E+01
      7.114  0.0000E+00  0.4320E+01
      7.180  0.0000E+00  0.4320E+01
      7.247  0.0000E+00  0.4320E+01
      7.314  0.0000E+00  0.4320E+01
      7.31414053    -12.73398090  301     -1.86027317      1.00000000
    -12.734  0.0000E+00  0.0000E+00  0.0000E+00
    -12.667  0.0000E+00  0.0000E+00  0.0000E+00
    -12.600  0.0000E+00  0.0000E+00  0.0000E+00
    -12.533  0.0000E+00  0.0000E+00  0.0000E+00
    -12.467  0.0000E+00  0.0000E+00  0.0000E+00
    -12.400 -0.1745E-31 -0.1875E-32 -0.1797E-34
    -12.333 -0.3900E-29 -0.4190E-30 -0.4015E-32
    -12.266 -0.6983E-27 -0.7502E-28 -0.7194E-30
    -12.199 -0.9978E-25 -0.1072E-25 -0.1028E-27
    -12.133 -0.1138E-22 -0.1222E-23 -0.1173E-25
    -12.066 -0.1035E-20 -0.1112E-21 -0.1068E-23
    -11.999 -0.7509E-19 -0.8069E-20 -0.7760E-22
    -11.932 -0.4343E-17 -0.4667E-18 -0.4498E-20
    -11.865 -0.1941E-15 -0.2086E-16 -0.2017E-18
    -11.798 -0.7097E-14 -0.7630E-15 -0.7414E-17
    -11.732 -0.2065E-12 -0.2220E-13 -0.2173E-15
    -11.665 -0.4777E-11 -0.5139E-12 -0.5087E-14
    -11.598 -0.8778E-10 -0.9451E-11 -0.9519E-13
    -11.531 -0.1280E-08 -0.1380E-09 -0.1427E-11
    -11.464 -0.1481E-07 -0.1600E-08 -0.1721E-10
    -11.397 -0.1358E-06 -0.1471E-07 -0.1676E-09
    -11.331 -0.9857E-06 -0.1072E-06 -0.1326E-08
    -11.264 -0.5661E-05 -0.6198E-06 -0.8566E-08
    -11.197 -0.2568E-04 -0.2838E-05 -0.4522E-07
    -11.130 -0.9153E-04 -0.1026E-04 -0.1938E-06
    -11.063 -0.2526E-03 -0.2884E-04 -0.6622E-06
    -10.996 -0.5153E-03 -0.6045E-04 -0.1732E-05
    -10.930 -0.6550E-03 -0.8086E-04 -0.3162E-05
    -10.863  0.3537E-04 -0.8071E-05 -0.2842E-05
    -10.796  0.2643E-02  0.2892E-03  0.3628E-05
    -10.729  0.7620E-02  0.8704E-03  0.1907E-04
    -10.662  0.1339E-01  0.1552E-02  0.3857E-04
    -10.596  0.1683E-01  0.1973E-02  0.5326E-04
    -10.529  0.1669E-01  0.2013E-02  0.6836E-04
    -10.462  0.1582E-01  0.2060E-02  0.1108E-03
    -10.395  0.1801E-01  0.2586E-02  0.2013E-03
    -10.328  0.2288E-01  0.3463E-02  0.3142E-03
    -10.261  0.2567E-01  0.3961E-02  0.3779E-03
    -10.195  0.2242E-01  0.3475E-02  0.3330E-03
    -10.128  0.1436E-01  0.2220E-02  0.2073E-03
    -10.061  0.7598E-02  0.1240E-02  0.1389E-03
     -9.994  0.8300E-02  0.1632E-02  0.2855E-03
     -9.927  0.1682E-01  0.3458E-02  0.6512E-03
     -9.860  0.2637E-01  0.5440E-02  0.1021E-02
     -9.794  0.2936E-01  0.6143E-02  0.1162E-02
     -9.727  0.2523E-01  0.5456E-02  0.1082E-02
     -9.660  0.2007E-01  0.4392E-02  0.9786E-03
     -9.593  0.1915E-01  0.3609E-02  0.9611E-03
     -9.526  0.2290E-01  0.2965E-02  0.9927E-03
     -9.459  0.2901E-01  0.2461E-02  0.1081E-02
     -9.393  0.3545E-01  0.2796E-02  0.1390E-02
     -9.326  0.4279E-01  0.4801E-02  0.2160E-02
     -9.259  0.5408E-01  0.8474E-02  0.3457E-02
     -9.192  0.6918E-01  0.1236E-01  0.4855E-02
     -9.125  0.7985E-01  0.1413E-01  0.5506E-02
     -9.058  0.7580E-01  0.1246E-01  0.4879E-02
     -8.992  0.5669E-01  0.8567E-02  0.3453E-02
     -8.925  0.3488E-01  0.5318E-02  0.2360E-02
     -8.858  0.2520E-01  0.4713E-02  0.2294E-02
     -8.791  0.3266E-01  0.6439E-02  0.2946E-02
     -8.724  0.4905E-01  0.8727E-02  0.3615E-02
     -8.658  0.6152E-01  0.1039E-01  0.4181E-02
     -8.591  0.6479E-01  0.1182E-01  0.5223E-02
     -8.524  0.6284E-01  0.1374E-01  0.7085E-02
     -8.457  0.5935E-01  0.1559E-01  0.9192E-02
     -8.390  0.5325E-01  0.1607E-01  0.1063E-01
     -8.323  0.4503E-01  0.1506E-01  0.1097E-01
     -8.257  0.4053E-01  0.1380E-01  0.1026E-01
     -8.190  0.4528E-01  0.1367E-01  0.8999E-02
     -8.123  0.5727E-01  0.1493E-01  0.8156E-02
     -8.056  0.6700E-01  0.1630E-01  0.8523E-02
     -7.989  0.6655E-01  0.1590E-01  0.1014E-01
     -7.922  0.5887E-01  0.1346E-01  0.1291E-01
     -7.856  0.5473E-01  0.1114E-01  0.1733E-01
     -7.789  0.5952E-01  0.1147E-01  0.2359E-01
     -7.722  0.6866E-01  0.1483E-01  0.3091E-01
     -7.655  0.7817E-01  0.1975E-01  0.3868E-01
     -7.588  0.9170E-01  0.2505E-01  0.4751E-01
     -7.521  0.1110E+00  0.3032E-01  0.5687E-01
     -7.455  0.1255E+00  0.3401E-01  0.6223E-01
     -7.388  0.1208E+00  0.3334E-01  0.5843E-01
     -7.321  0.9760E-01  0.2763E-01  0.4729E-01
     -7.254  0.7400E-01  0.2008E-01  0.3797E-01
     -7.187  0.6584E-01  0.1488E-01  0.3782E-01
     -7.121  0.7222E-01  0.1420E-01  0.4791E-01
     -7.054  0.8421E-01  0.1935E-01  0.7003E-01
     -6.987  0.9912E-01  0.3139E-01  0.1085E+00
     -6.920  0.1170E+00  0.4722E-01  0.1572E+00
     -6.853  0.1310E+00  0.5815E-01  0.1957E+00
     -6.786  0.1336E+00  0.5747E-01  0.2096E+00
     -6.720  0.1266E+00  0.4817E-01  0.2102E+00
     -6.653  0.1172E+00  0.3958E-01  0.2224E+00
     -6.586  0.1093E+00  0.3797E-01  0.2569E+00
     -6.519  0.1045E+00  0.4288E-01  0.3019E+00
     -6.452  0.1062E+00  0.5017E-01  0.3440E+00
     -6.385  0.1180E+00  0.5594E-01  0.3906E+00
     -6.319  0.1371E+00  0.5833E-01  0.4669E+00
     -6.252  0.1538E+00  0.5798E-01  0.5879E+00
     -6.185  0.1579E+00  0.5719E-01  0.7393E+00
     -6.118  0.1460E+00  0.5781E-01  0.8912E+00
     -6.051  0.1226E+00  0.5923E-01  0.1017E+01
     -5.984  0.9554E-01  0.5907E-01  0.1102E+01
     -5.918  0.7129E-01  0.5613E-01  0.1141E+01
     -5.851  0.5340E-01  0.5162E-01  0.1150E+01
     -5.784  0.4204E-01  0.4772E-01  0.1168E+01
     -5.717  0.3562E-01  0.4590E-01  0.1242E+01
     -5.650  0.3231E-01  0.4643E-01  0.1385E+01
     -5.583  0.3004E-01  0.4822E-01  0.1554E+01
     -5.517  0.2681E-01  0.4939E-01  0.1670E+01
     -5.450  0.2228E-01  0.4865E-01  0.1678E+01
     -5.383  0.1821E-01  0.4542E-01  0.1577E+01
     -5.316  0.1623E-01  0.3948E-01  0.1423E+01
     -5.249  0.1613E-01  0.3189E-01  0.1312E+01
     -5.183  0.1705E-01  0.2598E-01  0.1347E+01
     -5.116  0.1948E-01  0.2573E-01  0.1577E+01
     -5.049  0.2456E-01  0.3231E-01  0.1957E+01
     -4.982  0.3176E-01  0.4295E-01  0.2371E+01
     -4.915  0.3887E-01  0.5394E-01  0.2721E+01
     -4.848  0.4464E-01  0.6431E-01  0.3043E+01
     -4.782  0.4944E-01  0.7509E-01  0.3487E+01
     -4.715  0.5304E-01  0.8574E-01  0.4130E+01
     -4.648  0.5368E-01  0.9358E-01  0.4795E+01
     -4.581  0.5044E-01  0.9655E-01  0.5131E+01
     -4.514  0.4516E-01  0.9549E-01  0.4914E+01
     -4.447  0.4126E-01  0.9367E-01  0.4257E+01
     -4.381  0.4047E-01  0.9400E-01  0.3533E+01
     -4.314  0.4122E-01  0.9555E-01  0.3085E+01
     -4.247  0.4042E-01  0.9370E-01  0.2995E+01
     -4.180  0.3662E-01  0.8546E-01  0.3087E+01
     -4.113  0.3108E-01  0.7363E-01  0.3158E+01
     -4.046  0.2620E-01  0.6386E-01  0.3183E+01
     -3.980  0.2370E-01  0.5843E-01  0.3292E+01
     -3.913  0.2408E-01  0.5508E-01  0.3575E+01
     -3.846  0.2726E-01  0.5152E-01  0.3967E+01
     -3.779  0.3285E-01  0.4873E-01  0.4339E+01
     -3.712  0.3950E-01  0.4884E-01  0.4665E+01
     -3.645  0.4443E-01  0.5104E-01  0.5016E+01
     -3.579  0.4455E-01  0.5113E-01  0.5352E+01
     -3.512  0.3913E-01  0.4559E-01  0.5426E+01
     -3.445  0.3109E-01  0.3562E-01  0.5001E+01
     -3.378  0.2503E-01  0.2649E-01  0.4120E+01
     -3.311  0.2393E-01  0.2291E-01  0.3058E+01
     -3.245  0.2795E-01  0.2532E-01  0.2083E+01
     -3.178  0.3518E-01  0.3010E-01  0.1311E+01
     -3.111  0.4171E-01  0.3224E-01  0.7520E+00
     -3.044  0.4263E-01  0.2897E-01  0.3824E+00
     -2.977  0.3609E-01  0.2275E-01  0.1755E+00
     -2.910  0.2689E-01  0.2006E-01  0.1048E+00
     -2.844  0.2332E-01  0.2548E-01  0.1393E+00
     -2.777  0.2939E-01  0.3640E-01  0.2262E+00
     -2.710  0.4025E-01  0.4449E-01  0.2923E+00
     -2.643  0.4628E-01  0.4344E-01  0.2843E+00
     -2.576  0.4342E-01  0.3617E-01  0.2139E+00
     -2.509  0.3823E-01  0.3359E-01  0.1477E+00
     -2.443  0.3965E-01  0.4329E-01  0.1424E+00
     -2.376  0.4665E-01  0.5904E-01  0.1869E+00
     -2.309  0.4875E-01  0.6510E-01  0.2174E+00
     -2.242  0.4023E-01  0.5370E-01  0.1883E+00
     -2.175  0.2970E-01  0.3640E-01  0.1216E+00
     -2.108  0.3154E-01  0.3476E-01  0.8174E-01
     -2.042  0.4899E-01  0.5931E-01  0.1094E+00
     -1.975  0.6918E-01  0.9782E-01  0.1862E+00
     -1.908  0.7578E-01  0.1245E+00  0.2543E+00
     -1.841  0.6435E-01  0.1217E+00  0.2641E+00
     -1.774  0.4405E-01  0.9356E-01  0.2096E+00
     -1.708  0.2635E-01  0.5807E-01  0.1251E+00
     -1.641  0.1539E-01  0.2974E-01  0.5190E-01
     -1.574  0.9079E-02  0.1250E-01  0.1069E-01
     -1.507  0.5966E-02  0.6501E-02  0.3289E-02
     -1.440  0.8124E-02  0.1466E-01  0.2609E-01
     -1.373  0.1793E-01  0.3962E-01  0.7372E-01
     -1.307  0.3421E-01  0.7717E-01  0.1329E+00
     -1.240  0.5245E-01  0.1163E+00  0.1821E+00
     -1.173  0.6823E-01  0.1468E+00  0.2043E+00
     -1.106  0.7859E-01  0.1634E+00  0.1971E+00
     -1.039  0.7967E-01  0.1618E+00  0.1670E+00
     -0.972  0.6778E-01  0.1380E+00  0.1214E+00
     -0.906  0.4629E-01  0.9799E-01  0.7311E-01
     -0.839  0.2725E-01  0.6264E-01  0.4388E-01
     -0.772  0.2134E-01  0.5104E-01  0.4933E-01
     -0.705  0.2748E-01  0.6152E-01  0.8129E-01
     -0.638  0.3497E-01  0.7556E-01  0.1121E+00
     -0.571  0.3441E-01  0.7858E-01  0.1181E+00
     -0.505  0.2525E-01  0.7167E-01  0.9724E-01
     -0.438  0.1399E-01  0.6595E-01  0.6603E-01
     -0.371  0.7268E-02  0.7079E-01  0.4305E-01
     -0.304  0.6557E-02  0.8482E-01  0.3514E-01
     -0.237  0.8377E-02  0.9572E-01  0.3616E-01
     -0.170  0.9234E-02  0.9339E-01  0.3761E-01
     -0.104  0.1049E-01  0.8496E-01  0.4062E-01
     -0.037  0.1785E-01  0.8999E-01  0.5599E-01
      0.030  0.3487E-01  0.1176E+00  0.9000E-01
      0.097  0.5674E-01  0.1539E+00  0.1315E+00
      0.164  0.7155E-01  0.1743E+00  0.1568E+00
      0.230  0.6998E-01  0.1665E+00  0.1506E+00
      0.297  0.5382E-01  0.1389E+00  0.1198E+00
      0.364  0.3357E-01  0.1099E+00  0.8557E-01
      0.431  0.1865E-01  0.9119E-01  0.6319E-01
      0.498  0.1187E-01  0.8153E-01  0.5391E-01
      0.565  0.1114E-01  0.7380E-01  0.5049E-01
      0.631  0.1257E-01  0.6271E-01  0.4546E-01
      0.698  0.1271E-01  0.4813E-01  0.3604E-01
      0.765  0.1057E-01  0.3546E-01  0.2597E-01
      0.832  0.7900E-02  0.3397E-01  0.2304E-01
      0.899  0.7253E-02  0.5186E-01  0.3303E-01
      0.966  0.1023E-01  0.8771E-01  0.5420E-01
      1.032  0.1652E-01  0.1250E+00  0.7616E-01
      1.099  0.2296E-01  0.1399E+00  0.8536E-01
      1.166  0.2466E-01  0.1212E+00  0.7494E-01
      1.233  0.1956E-01  0.8263E-01  0.5169E-01
      1.300  0.1124E-01  0.5217E-01  0.3168E-01
      1.367  0.6011E-02  0.4801E-01  0.2725E-01
      1.433  0.7483E-02  0.6715E-01  0.3874E-01
      1.500  0.1428E-01  0.9525E-01  0.5826E-01
      1.567  0.2136E-01  0.1192E+00  0.7672E-01
      1.634  0.2361E-01  0.1286E+00  0.8591E-01
      1.701  0.1959E-01  0.1161E+00  0.7987E-01
      1.767  0.1207E-01  0.8316E-01  0.5901E-01
      1.834  0.4965E-02  0.4283E-01  0.3180E-01
      1.901  0.6158E-03  0.1181E-01  0.9733E-02
      1.968 -0.1020E-03  0.7195E-03  0.6173E-03
      2.035  0.3000E-02  0.1056E-01  0.5712E-02
      2.102  0.8879E-02  0.3324E-01  0.2011E-01
      2.168  0.1466E-01  0.5426E-01  0.3459E-01
      2.235  0.1716E-01  0.6061E-01  0.4037E-01
      2.302  0.1541E-01  0.5060E-01  0.3540E-01
      2.369  0.1131E-01  0.3493E-01  0.2589E-01
      2.436  0.7944E-02  0.2710E-01  0.2087E-01
      2.503  0.7729E-02  0.3249E-01  0.2485E-01
      2.569  0.1182E-01  0.4482E-01  0.3478E-01
      2.636  0.2043E-01  0.5310E-01  0.4412E-01
      2.703  0.3263E-01  0.5352E-01  0.5023E-01
      2.770  0.4517E-01  0.5342E-01  0.5636E-01
      2.837  0.5269E-01  0.6094E-01  0.6521E-01
      2.904  0.5179E-01  0.7327E-01  0.7307E-01
      2.970  0.4559E-01  0.7975E-01  0.7399E-01
      3.037  0.4230E-01  0.7528E-01  0.6819E-01
      3.104  0.4636E-01  0.6442E-01  0.6118E-01
      3.171  0.5198E-01  0.5255E-01  0.5480E-01
      3.238  0.4954E-01  0.4086E-01  0.4603E-01
      3.305  0.3840E-01  0.3129E-01  0.3543E-01
      3.371  0.2802E-01  0.2827E-01  0.2914E-01
      3.438  0.2607E-01  0.3203E-01  0.3022E-01
      3.505  0.3101E-01  0.3603E-01  0.3425E-01
      3.572  0.3835E-01  0.3550E-01  0.3684E-01
      3.639  0.5102E-01  0.3595E-01  0.4237E-01
      3.705  0.7786E-01  0.4937E-01  0.6041E-01
      3.772  0.1174E+00  0.7928E-01  0.9101E-01
      3.839  0.1493E+00  0.1110E+00  0.1174E+00
      3.906  0.1520E+00  0.1220E+00  0.1208E+00
      3.973  0.1271E+00  0.1040E+00  0.1009E+00
      4.040  0.9513E-01  0.7172E-01  0.7510E-01
      4.106  0.7294E-01  0.4833E-01  0.6042E-01
      4.173  0.6549E-01  0.4646E-01  0.6172E-01
      4.240  0.7223E-01  0.6257E-01  0.7433E-01
      4.307  0.8938E-01  0.8402E-01  0.8945E-01
      4.374  0.1067E+00  0.9818E-01  0.9771E-01
      4.441  0.1113E+00  0.9864E-01  0.9396E-01
      4.507  0.9885E-01  0.8776E-01  0.8127E-01
      4.574  0.7818E-01  0.7491E-01  0.6857E-01
      4.641  0.6410E-01  0.7085E-01  0.6353E-01
      4.708  0.6564E-01  0.8091E-01  0.6788E-01
      4.775  0.7954E-01  0.1000E+00  0.7723E-01
      4.842  0.9365E-01  0.1154E+00  0.8385E-01
      4.908  0.9789E-01  0.1177E+00  0.8252E-01
      4.975  0.9077E-01  0.1082E+00  0.7416E-01
      5.042  0.7505E-01  0.9193E-01  0.6184E-01
      5.109  0.5300E-01  0.6975E-01  0.4627E-01
      5.176  0.2884E-01  0.4312E-01  0.2829E-01
      5.243  0.9600E-02  0.1873E-01  0.1210E-01
      5.309 -0.4127E-03  0.3432E-02  0.2022E-02
      5.376 -0.2839E-02 -0.2209E-02 -0.1632E-02
      5.443 -0.2020E-02 -0.2461E-02 -0.1719E-02
      5.510 -0.9071E-03 -0.1365E-02 -0.9350E-03
      5.577 -0.3156E-03 -0.5750E-03 -0.3822E-03
      5.643 -0.9882E-04 -0.2174E-03 -0.1377E-03
      5.710 -0.3114E-04 -0.7889E-04 -0.4735E-04
      5.777 -0.9668E-05 -0.2623E-04 -0.1515E-04
      5.844 -0.2660E-05 -0.7386E-05 -0.4180E-05
      5.911 -0.6006E-06 -0.1677E-05 -0.9399E-06
      5.978 -0.1077E-06 -0.3009E-06 -0.1679E-06
      6.044 -0.1521E-07 -0.4246E-07 -0.2365E-07
      6.111 -0.1688E-08 -0.4712E-08 -0.2623E-08
      6.178 -0.1477E-09 -0.4122E-09 -0.2293E-09
      6.245 -0.1021E-10 -0.2848E-10 -0.1584E-10
      6.312 -0.5583E-12 -0.1558E-11 -0.8664E-12
      6.379 -0.2421E-13 -0.6755E-13 -0.3757E-13
      6.445 -0.8335E-15 -0.2325E-14 -0.1293E-14
      6.512 -0.2285E-16 -0.6375E-16 -0.3546E-16
      6.579 -0.5297E-18 -0.1477E-17 -0.8207E-18
      6.646  0.0000E+00  0.0000E+00  0.0000E+00
      6.713  0.0000E+00  0.0000E+00  0.0000E+00
      6.780  0.0000E+00  0.0000E+00  0.0000E+00
      6.846  0.0000E+00  0.0000E+00  0.0000E+00
      6.913  0.0000E+00  0.0000E+00  0.0000E+00
      6.980  0.0000E+00  0.0000E+00  0.0000E+00
      7.047  0.0000E+00  0.0000E+00  0.0000E+00
      7.114  0.0000E+00  0.0000E+00  0.0000E+00
      7.180  0.0000E+00  0.0000E+00  0.0000E+00
      7.247  0.0000E+00  0.0000E+00  0.0000E+00
      7.314  0.0000E+00  0.0000E+00  0.0000E+00
      7.31414053    -12.73398090  301     -1.86027317      1.00000000
    -12.734  0.0000E+00  0.0000E+00  0.0000E+00
    -12.667  0.0000E+00  0.0000E+00  0.0000E+00
    -12.600  0.0000E+00  0.0000E+00  0.0000E+00
    -12.533  0.0000E+00  0.0000E+00  0.0000E+00
    -12.467  0.0000E+00  0.0000E+00  0.0000E+00
    -12.400 -0.1745E-31 -0.1874E-32 -0.1793E-34
    -12.333 -0.3899E-29 -0.4189E-30 -0.4007E-32
    -12.266 -0.6982E-27 -0.7500E-28 -0.7180E-30
    -12.199 -0.9976E-25 -0.1072E-25 -0.1026E-27
    -12.133 -0.1138E-22 -0.1222E-23 -0.1171E-25
    -12.066 -0.1035E-20 -0.1112E-21 -0.1066E-23
    -11.999 -0.7508E-19 -0.8066E-20 -0.7746E-22
    -11.932 -0.4343E-17 -0.4666E-18 -0.4489E-20
    -11.865 -0.1941E-15 -0.2085E-16 -0.2013E-18
    -11.798 -0.7096E-14 -0.7628E-15 -0.7400E-17
    -11.732 -0.2065E-12 -0.2220E-13 -0.2169E-15
    -11.665 -0.4776E-11 -0.5137E-12 -0.5077E-14
    -11.598 -0.8776E-10 -0.9448E-11 -0.9502E-13
    -11.531 -0.1280E-08 -0.1380E-09 -0.1425E-11
    -11.464 -0.1481E-07 -0.1599E-08 -0.1718E-10
    -11.397 -0.1358E-06 -0.1470E-07 -0.1674E-09
    -11.331 -0.9855E-06 -0.1072E-06 -0.1325E-08
    -11.264 -0.5660E-05 -0.6196E-06 -0.8556E-08
    -11.197 -0.2567E-04 -0.2838E-05 -0.4517E-07
    -11.130 -0.9151E-04 -0.1025E-04 -0.1937E-06
    -11.063 -0.2525E-03 -0.2883E-04 -0.6618E-06
    -10.996 -0.5152E-03 -0.6043E-04 -0.1731E-05
    -10.930 -0.6549E-03 -0.8084E-04 -0.3161E-05
    -10.863  0.3537E-04 -0.8068E-05 -0.2843E-05
    -10.796  0.2643E-02  0.2891E-03  0.3623E-05
    -10.729  0.7619E-02  0.8702E-03  0.1905E-04
    -10.662  0.1338E-01  0.1552E-02  0.3855E-04
    -10.596  0.1683E-01  0.1973E-02  0.5324E-04
    -10.529  0.1669E-01  0.2012E-02  0.6834E-04
    -10.462  0.1581E-01  0.2059E-02  0.1108E-03
    -10.395  0.1801E-01  0.2585E-02  0.2014E-03
    -10.328  0.2288E-01  0.3462E-02  0.3142E-03
    -10.261  0.2567E-01  0.3960E-02  0.3779E-03
    -10.195  0.2241E-01  0.3473E-02  0.3330E-03
    -10.128  0.1435E-01  0.2219E-02  0.2073E-03
    -10.061  0.7597E-02  0.1240E-02  0.1389E-03
     -9.994  0.8298E-02  0.1632E-02  0.2856E-03
     -9.927  0.1682E-01  0.3457E-02  0.6513E-03
     -9.860  0.2637E-01  0.5439E-02  0.1021E-02
     -9.794  0.2935E-01  0.6141E-02  0.1162E-02
     -9.727  0.2522E-01  0.5454E-02  0.1082E-02
     -9.660  0.2007E-01  0.4391E-02  0.9788E-03
     -9.593  0.1915E-01  0.3608E-02  0.9612E-03
     -9.526  0.2290E-01  0.2964E-02  0.9926E-03
     -9.459  0.2900E-01  0.2461E-02  0.1080E-02
     -9.393  0.3544E-01  0.2795E-02  0.1390E-02
     -9.326  0.4278E-01  0.4800E-02  0.2160E-02
     -9.259  0.5406E-01  0.8472E-02  0.3457E-02
     -9.192  0.6916E-01  0.1236E-01  0.4855E-02
     -9.125  0.7983E-01  0.1412E-01  0.5506E-02
     -9.058  0.7577E-01  0.1245E-01  0.4880E-02
     -8.992  0.5666E-01  0.8566E-02  0.3453E-02
     -8.925  0.3485E-01  0.5318E-02  0.2361E-02
     -8.858  0.2518E-01  0.4712E-02  0.2294E-02
     -8.791  0.3266E-01  0.6436E-02  0.2946E-02
     -8.724  0.4906E-01  0.8723E-02  0.3614E-02
     -8.658  0.6151E-01  0.1039E-01  0.4181E-02
     -8.591  0.6476E-01  0.1182E-01  0.5225E-02
     -8.524  0.6280E-01  0.1374E-01  0.7087E-02
     -8.457  0.5936E-01  0.1558E-01  0.9191E-02
     -8.390  0.5334E-01  0.1606E-01  0.1063E-01
     -8.323  0.4516E-01  0.1504E-01  0.1096E-01
     -8.257  0.4066E-01  0.1379E-01  0.1025E-01
     -8.190  0.4536E-01  0.1366E-01  0.8992E-02
     -8.123  0.5726E-01  0.1493E-01  0.8154E-02
     -8.056  0.6692E-01  0.1630E-01  0.8524E-02
     -7.989  0.6643E-01  0.1591E-01  0.1014E-01
     -7.922  0.5875E-01  0.1347E-01  0.1292E-01
     -7.856  0.5465E-01  0.1115E-01  0.1732E-01
     -7.789  0.5949E-01  0.1147E-01  0.2358E-01
     -7.722  0.6868E-01  0.1483E-01  0.3090E-01
     -7.655  0.7820E-01  0.1975E-01  0.3867E-01
     -7.588  0.9170E-01  0.2505E-01  0.4750E-01
     -7.521  0.1110E+00  0.3031E-01  0.5687E-01
     -7.455  0.1254E+00  0.3400E-01  0.6223E-01
     -7.388  0.1208E+00  0.3333E-01  0.5843E-01
     -7.321  0.9766E-01  0.2761E-01  0.4728E-01
     -7.254  0.7406E-01  0.2007E-01  0.3796E-01
     -7.187  0.6586E-01  0.1487E-01  0.3781E-01
     -7.121  0.7221E-01  0.1420E-01  0.4789E-01
     -7.054  0.8418E-01  0.1935E-01  0.7001E-01
     -6.987  0.9909E-01  0.3138E-01  0.1084E+00
     -6.920  0.1169E+00  0.4721E-01  0.1572E+00
     -6.853  0.1310E+00  0.5813E-01  0.1957E+00
     -6.786  0.1336E+00  0.5745E-01  0.2096E+00