  64  64   1   0
  0.4134206E+02  0.1072382E-08  0.1072382E-08  0.2656697E-08  0.1000000E-15
  1.000000000000000E-004
  CAR 
 unknown system                          
      7.88030664    -10.10713558  301     -0.76103610      1.00000000
    -10.107  0.0000E+00  0.0000E+00
    -10.047  0.0000E+00  0.0000E+00
     -9.987  0.0000E+00  0.0000E+00
     -9.927  0.0000E+00  0.0000E+00
     -9.867  0.0000E+00  0.0000E+00
     -9.807  0.0000E+00  0.0000E+00
     -9.747 -0.1484E-30 -0.8897E-32
     -9.687 -0.1771E-28 -0.1071E-29
     -9.627 -0.1775E-26 -0.1075E-27
     -9.568 -0.1483E-24 -0.9001E-26
     -9.508 -0.1034E-22 -0.6287E-24
     -9.448 -0.6004E-21 -0.3663E-22
     -9.388 -0.2906E-19 -0.1779E-20
     -9.328 -0.1172E-17 -0.7206E-19
     -9.268 -0.3822E-16 -0.2364E-17
     -9.208 -0.1065E-14 -0.6624E-16
     -9.148 -0.2470E-13 -0.1547E-14
     -9.088 -0.4760E-12 -0.3009E-13
     -9.028 -0.7622E-11 -0.4871E-12
     -8.968 -0.1013E-09 -0.6561E-11
     -8.908 -0.1117E-08 -0.7351E-10
     -8.848 -0.1020E-07 -0.6852E-09
     -8.788 -0.7717E-07 -0.5312E-08
     -8.728 -0.4829E-06 -0.3426E-07
     -8.668 -0.2497E-05 -0.1840E-06
     -8.608 -0.1066E-04 -0.8233E-06
     -8.548 -0.3752E-04 -0.3073E-05
     -8.488 -0.1083E-03 -0.9567E-05
     -8.428 -0.2534E-03 -0.2476E-04
     -8.368 -0.4630E-03 -0.5252E-04
     -8.308 -0.5827E-03 -0.8745E-04
     -8.248 -0.1813E-03 -0.9832E-04
     -8.188  0.1444E-02 -0.1172E-04
     -8.129  0.4854E-02  0.2793E-03
     -8.069  0.9639E-02  0.8573E-03
     -8.009  0.1400E-01  0.1697E-02
     -7.949  0.1588E-01  0.2649E-02
     -7.889  0.1510E-01  0.3555E-02
     -7.829  0.1419E-01  0.4405E-02
     -7.769  0.1599E-01  0.5364E-02
     -7.709  0.2052E-01  0.6595E-02
     -7.649  0.2452E-01  0.8065E-02
     -7.589  0.2430E-01  0.9522E-02
     -7.529  0.1903E-01  0.1066E-01
     -7.469  0.1190E-01  0.1138E-01
     -7.409  0.8159E-02  0.1187E-01
     -7.349  0.1136E-01  0.1255E-01
     -7.289  0.2019E-01  0.1376E-01
     -7.229  0.2917E-01  0.1551E-01
     -7.169  0.3311E-01  0.1749E-01
     -7.109  0.3118E-01  0.1936E-01
     -7.049  0.2620E-01  0.2093E-01
     -6.989  0.2132E-01  0.2221E-01
     -6.929  0.1885E-01  0.2334E-01
     -6.869  0.2209E-01  0.2466E-01
     -6.809  0.3554E-01  0.2680E-01
     -6.749  0.6104E-01  0.3046E-01
     -6.690  0.9384E-01  0.3608E-01
     -6.630  0.1252E+00  0.4359E-01
     -6.570  0.1505E+00  0.5261E-01
     -6.510  0.1746E+00  0.6308E-01
     -6.450  0.2070E+00  0.7549E-01
     -6.390  0.2539E+00  0.9071E-01
     -6.330  0.3131E+00  0.1095E+00
     -6.270  0.3745E+00  0.1319E+00
     -6.210  0.4229E+00  0.1573E+00
     -6.150  0.4445E+00  0.1840E+00
     -6.090  0.4383E+00  0.2102E+00
     -6.030  0.4230E+00  0.2356E+00
     -5.970  0.4265E+00  0.2612E+00
     -5.910  0.4620E+00  0.2889E+00
     -5.850  0.5142E+00  0.3197E+00
     -5.790  0.5554E+00  0.3530E+00
     -5.730  0.5731E+00  0.3874E+00
     -5.670  0.5749E+00  0.4218E+00
     -5.610  0.5678E+00  0.4559E+00
     -5.550  0.5447E+00  0.4885E+00
     -5.490  0.4990E+00  0.5184E+00
     -5.430  0.4442E+00  0.5451E+00
     -5.370  0.4075E+00  0.5695E+00
     -5.310  0.4038E+00  0.5937E+00
     -5.251  0.4247E+00  0.6192E+00
     -5.191  0.4504E+00  0.6462E+00
     -5.131  0.4660E+00  0.6741E+00
     -5.071  0.4675E+00  0.7022E+00
     -5.011  0.4591E+00  0.7297E+00
     -4.951  0.4484E+00  0.7566E+00
     -4.891  0.4404E+00  0.7830E+00
     -4.831  0.4331E+00  0.8090E+00
     -4.771  0.4216E+00  0.8342E+00
     -4.711  0.4051E+00  0.8585E+00
     -4.651  0.3886E+00  0.8818E+00
     -4.591  0.3778E+00  0.9045E+00
     -4.531  0.3750E+00  0.9270E+00
     -4.471  0.3787E+00  0.9497E+00
     -4.411  0.3858E+00  0.9728E+00
     -4.351  0.3920E+00  0.9963E+00
     -4.291  0.3925E+00  0.1020E+01
     -4.231  0.3854E+00  0.1043E+01
     -4.171  0.3770E+00  0.1066E+01
     -4.111  0.3790E+00  0.1088E+01
     -4.051  0.3962E+00  0.1112E+01
     -3.991  0.4207E+00  0.1137E+01
     -3.931  0.4403E+00  0.1164E+01
     -3.871  0.4534E+00  0.1191E+01
     -3.812  0.4693E+00  0.1219E+01
     -3.752  0.4976E+00  0.1249E+01
     -3.692  0.5422E+00  0.1281E+01
     -3.632  0.6029E+00  0.1317E+01
     -3.572  0.6757E+00  0.1358E+01
     -3.512  0.7444E+00  0.1403E+01
     -3.452  0.7795E+00  0.1449E+01
     -3.392  0.7582E+00  0.1495E+01
     -3.332  0.6914E+00  0.1536E+01
     -3.272  0.6241E+00  0.1574E+01
     -3.212  0.6014E+00  0.1610E+01
     -3.152  0.6308E+00  0.1648E+01
     -3.092  0.6768E+00  0.1688E+01
     -3.032  0.6907E+00  0.1730E+01
     -2.972  0.6514E+00  0.1769E+01
     -2.912  0.5798E+00  0.1803E+01
     -2.852  0.5168E+00  0.1834E+01
     -2.792  0.4858E+00  0.1864E+01
     -2.732  0.4757E+00  0.1892E+01
     -2.672  0.4591E+00  0.1920E+01
     -2.612  0.4264E+00  0.1945E+01
     -2.552  0.4005E+00  0.1969E+01
     -2.492  0.4168E+00  0.1994E+01
     -2.432  0.4862E+00  0.2023E+01
     -2.373  0.5813E+00  0.2058E+01
     -2.313  0.6553E+00  0.2097E+01
     -2.253  0.6717E+00  0.2138E+01
     -2.193  0.6216E+00  0.2175E+01
     -2.133  0.5267E+00  0.2207E+01
     -2.073  0.4293E+00  0.2232E+01
     -2.013  0.3702E+00  0.2254E+01
     -1.953  0.3639E+00  0.2276E+01
     -1.893  0.3905E+00  0.2300E+01
     -1.833  0.4144E+00  0.2325E+01
     -1.773  0.4184E+00  0.2350E+01
     -1.713  0.4196E+00  0.2375E+01
     -1.653  0.4472E+00  0.2402E+01
     -1.593  0.5067E+00  0.2432E+01
     -1.533  0.5726E+00  0.2466E+01
     -1.473  0.6186E+00  0.2503E+01
     -1.413  0.6426E+00  0.2542E+01
     -1.353  0.6546E+00  0.2581E+01
     -1.293  0.6509E+00  0.2620E+01
     -1.233  0.6130E+00  0.2657E+01
     -1.173  0.5337E+00  0.2689E+01
     -1.113  0.4373E+00  0.2715E+01
     -1.053  0.3666E+00  0.2737E+01
     -0.993  0.3532E+00  0.2758E+01
     -0.934  0.3987E+00  0.2782E+01
     -0.874  0.4817E+00  0.2811E+01
     -0.814  0.5755E+00  0.2846E+01
     -0.754  0.6569E+00  0.2885E+01
     -0.694  0.7051E+00  0.2927E+01
     -0.634  0.7047E+00  0.2970E+01
     -0.574  0.6609E+00  0.3009E+01
     -0.514  0.6047E+00  0.3045E+01
     -0.454  0.5732E+00  0.3080E+01
     -0.394  0.5791E+00  0.3115E+01
     -0.334  0.6014E+00  0.3151E+01
     -0.274  0.6058E+00  0.3187E+01
     -0.214  0.5734E+00  0.3221E+01
     -0.154  0.5118E+00  0.3252E+01
     -0.094  0.4435E+00  0.3279E+01
     -0.034  0.3870E+00  0.3302E+01
      0.026  0.3471E+00  0.3323E+01
      0.086  0.3166E+00  0.3342E+01
      0.146  0.2856E+00  0.3359E+01
      0.206  0.2471E+00  0.3374E+01
      0.266  0.1987E+00  0.3385E+01
      0.326  0.1439E+00  0.3394E+01
      0.386  0.9063E-01  0.3400E+01
      0.445  0.4837E-01  0.3402E+01
      0.505  0.2376E-01  0.3404E+01
      0.565  0.1920E-01  0.3405E+01
      0.625  0.3344E-01  0.3407E+01
      0.685  0.6060E-01  0.3411E+01
      0.745  0.8907E-01  0.3416E+01
      0.805  0.1060E+00  0.3422E+01
      0.865  0.1063E+00  0.3429E+01
      0.925  0.9607E-01  0.3434E+01
      0.985  0.8528E-01  0.3440E+01
      1.045  0.7838E-01  0.3444E+01
      1.105  0.7333E-01  0.3449E+01
      1.165  0.6740E-01  0.3453E+01
      1.225  0.6040E-01  0.3456E+01
      1.285  0.5307E-01  0.3460E+01
      1.345  0.4557E-01  0.3462E+01
      1.405  0.3879E-01  0.3465E+01
      1.465  0.3528E-01  0.3467E+01
      1.525  0.3672E-01  0.3469E+01
      1.585  0.4036E-01  0.3471E+01
      1.645  0.4005E-01  0.3474E+01
      1.705  0.3208E-01  0.3476E+01
      1.765  0.1904E-01  0.3477E+01
      1.825  0.7020E-02  0.3477E+01
      1.884  0.2903E-04  0.3477E+01
      1.944 -0.2118E-02  0.3477E+01
      2.004 -0.1778E-02  0.3477E+01
      2.064 -0.9296E-03  0.3477E+01
      2.124 -0.3603E-03  0.3477E+01
      2.184 -0.1093E-03  0.3477E+01
      2.244 -0.2664E-04  0.3477E+01
      2.304 -0.5284E-05  0.3477E+01
      2.364 -0.8599E-06  0.3477E+01
      2.424 -0.1155E-06  0.3477E+01
      2.484 -0.1284E-07  0.3477E+01
      2.544 -0.1185E-08  0.3477E+01
      2.604 -0.9102E-10  0.3477E+01
      2.664 -0.5823E-11  0.3477E+01
      2.724 -0.3106E-12  0.3477E+01
      2.784 -0.1383E-13  0.3477E+01
      2.844 -0.5162E-15  0.3477E+01
      2.904 -0.1389E-16  0.3477E+01
      2.964  0.0000E+00  0.3477E+01
      3.024  0.0000E+00  0.3477E+01
      3.084  0.0000E+00  0.3477E+01
      3.144  0.0000E+00  0.3477E+01
      3.204  0.0000E+00  0.3477E+01
      3.264  0.0000E+00  0.3477E+01
      3.323  0.0000E+00  0.3477E+01
      3.383  0.0000E+00  0.3477E+01
      3.443  0.0000E+00  0.3477E+01
      3.503  0.0000E+00  0.3477E+01
      3.563 -0.1068E-30  0.3477E+01
      3.623 -0.1308E-28  0.3477E+01
      3.683 -0.1330E-26  0.3477E+01
      3.743 -0.1129E-24  0.3477E+01
      3.803 -0.7990E-23  0.3477E+01
      3.863 -0.4716E-21  0.3477E+01
      3.923 -0.2322E-19  0.3477E+01
      3.983 -0.9528E-18  0.3477E+01
      4.043 -0.3144E-16  0.3477E+01
      4.103 -0.8997E-15  0.3477E+01
      4.163 -0.2127E-13  0.3477E+01
      4.223 -0.4187E-12  0.3477E+01
      4.283 -0.6852E-11  0.3477E+01
      4.343 -0.9315E-10  0.3477E+01
      4.403 -0.1051E-08  0.3477E+01
      4.463 -0.9816E-08  0.3477E+01
      4.523 -0.7579E-07  0.3477E+01
      4.583 -0.4821E-06  0.3477E+01
      4.643 -0.2514E-05  0.3477E+01
      4.703 -0.1067E-04  0.3477E+01
      4.762 -0.3643E-04  0.3477E+01
      4.822 -0.9780E-04  0.3477E+01
      4.882 -0.1967E-03  0.3477E+01
      4.942 -0.2567E-03  0.3477E+01
      5.002 -0.5747E-04  0.3477E+01
      5.062  0.7029E-03  0.3477E+01
      5.122  0.2120E-02  0.3477E+01
      5.182  0.3773E-02  0.3477E+01
      5.242  0.4840E-02  0.3478E+01
      5.302  0.4772E-02  0.3478E+01
      5.362  0.3845E-02  0.3478E+01
      5.422  0.2875E-02  0.3478E+01
      5.482  0.2381E-02  0.3478E+01
      5.542  0.2215E-02  0.3478E+01
      5.602  0.2068E-02  0.3479E+01
      5.662  0.2069E-02  0.3479E+01
      5.722  0.2615E-02  0.3479E+01
      5.782  0.3695E-02  0.3479E+01
      5.842  0.4627E-02  0.3479E+01
      5.902  0.4624E-02  0.3480E+01
      5.962  0.3542E-02  0.3480E+01
      6.022  0.1968E-02  0.3480E+01
      6.082  0.6523E-03  0.3480E+01
      6.142 -0.4795E-04  0.3480E+01
      6.201 -0.2345E-03  0.3480E+01
      6.261 -0.1826E-03  0.3480E+01
      6.321 -0.9227E-04  0.3480E+01
      6.381 -0.3501E-04  0.3480E+01
      6.441 -0.1046E-04  0.3480E+01
      6.501 -0.2516E-05  0.3480E+01
      6.561 -0.4929E-06  0.3480E+01
      6.621 -0.7916E-07  0.3480E+01
      6.681 -0.1047E-07  0.3480E+01
      6.741 -0.1144E-08  0.3480E+01
      6.801 -0.1035E-09  0.3480E+01
      6.861 -0.7767E-11  0.3480E+01
      6.921 -0.4837E-12  0.3480E+01
      6.981 -0.2503E-13  0.3480E+01
      7.041 -0.1079E-14  0.3480E+01
      7.101 -0.3703E-16  0.3480E+01
      7.161 -0.2315E-17  0.3480E+01
      7.221  0.0000E+00  0.3480E+01
      7.281  0.0000E+00  0.3480E+01
      7.341  0.0000E+00  0.3480E+01
      7.401  0.0000E+00  0.3480E+01
      7.461  0.0000E+00  0.3480E+01
      7.521  0.0000E+00  0.3480E+01
      7.581  0.0000E+00  0.3480E+01
      7.640  0.0000E+00  0.3480E+01
      7.700  0.0000E+00  0.3480E+01
      7.760  0.0000E+00  0.3480E+01
      7.820  0.0000E+00  0.3480E+01
      7.880  0.0000E+00  0.3480E+01
      7.88030664    -10.10713558  301     -0.76103610      1.00000000
    -10.107  0.0000E+00  0.0000E+00  0.0000E+00
    -10.047  0.0000E+00  0.0000E+00  0.0000E+00
     -9.987  0.0000E+00  0.0000E+00  0.0000E+00
     -9.927  0.0000E+00  0.0000E+00  0.0000E+00
     -9.867  0.0000E+00  0.0000E+00  0.0000E+00
     -9.807  0.0000E+00  0.0000E+00  0.0000E+00
     -9.747 -0.1230E-30 -0.1459E-31 -0.8314E-35
     -9.687 -0.1467E-28 -0.1740E-29 -0.9920E-33
     -9.627 -0.1471E-26 -0.1744E-27 -0.1010E-30
     -9.568 -0.1229E-24 -0.1458E-25 -0.8512E-29
     -9.508 -0.8565E-23 -0.1016E-23 -0.6004E-27
     -9.448 -0.4975E-21 -0.5902E-22 -0.3551E-25
     -9.388 -0.2409E-19 -0.2857E-20 -0.1766E-23
     -9.328 -0.9714E-18 -0.1152E-18 -0.7409E-22
     -9.268 -0.3167E-16 -0.3757E-17 -0.2570E-20
     -9.208 -0.8828E-15 -0.1047E-15 -0.7791E-19
     -9.148 -0.2047E-13 -0.2429E-14 -0.2003E-17
     -9.088 -0.3945E-12 -0.4682E-13 -0.4507E-16
     -9.028 -0.6315E-11 -0.7498E-12 -0.8756E-15
     -8.968 -0.8393E-10 -0.9970E-11 -0.1477E-13
     -8.908 -0.9251E-09 -0.1100E-09 -0.2158E-12
     -8.848 -0.8450E-08 -0.1006E-08 -0.2710E-11
     -8.788 -0.6390E-07 -0.7622E-08 -0.2905E-10
     -8.728 -0.3997E-06 -0.4781E-07 -0.2632E-09
     -8.668 -0.2066E-05 -0.2482E-06 -0.1999E-08
     -8.608 -0.8814E-05 -0.1066E-05 -0.1262E-07
     -8.548 -0.3098E-04 -0.3783E-05 -0.6557E-07
     -8.488 -0.8927E-04 -0.1105E-04 -0.2778E-06
     -8.428 -0.2083E-03 -0.2630E-04 -0.9452E-06
     -8.368 -0.3791E-03 -0.4924E-04 -0.2523E-05
     -8.308 -0.4738E-03 -0.6473E-04 -0.5040E-05
     -8.248 -0.1384E-03 -0.2751E-04 -0.6614E-05
     -8.188  0.1201E-02  0.1392E-03 -0.2319E-05
     -8.129  0.3997E-02  0.4990E-03  0.1325E-04
     -8.069  0.7913E-02  0.1011E-02  0.3887E-04
     -8.009  0.1148E-01  0.1482E-02  0.6370E-04
     -7.949  0.1300E-01  0.1694E-02  0.8045E-04
     -7.889  0.1232E-01  0.1649E-02  0.1082E-03
     -7.829  0.1144E-01  0.1647E-02  0.1934E-03
     -7.769  0.1268E-01  0.2008E-02  0.3695E-03
     -7.709  0.1609E-01  0.2698E-02  0.6036E-03
     -7.649  0.1913E-01  0.3281E-02  0.7870E-03
     -7.589  0.1892E-01  0.3268E-02  0.7983E-03
     -7.529  0.1482E-01  0.2560E-02  0.6151E-03
     -7.469  0.9237E-02  0.1614E-02  0.3971E-03
     -7.409  0.6141E-02  0.1203E-02  0.4391E-03
     -7.349  0.8168E-02  0.1860E-02  0.9581E-03
     -7.289  0.1434E-01  0.3375E-02  0.1857E-02
     -7.229  0.2065E-01  0.4881E-02  0.2729E-02
     -7.169  0.2344E-01  0.5548E-02  0.3129E-02
     -7.109  0.2240E-01  0.5205E-02  0.2808E-02
     -7.049  0.2003E-01  0.4261E-02  0.1680E-02
     -6.989  0.1868E-01  0.3207E-02 -0.9194E-04
     -6.929  0.1898E-01  0.2470E-02 -0.1466E-02
     -6.869  0.2084E-01  0.2625E-02  0.7007E-04
     -6.809  0.2488E-01  0.4263E-02  0.7677E-02
     -6.749  0.3206E-01  0.7354E-02  0.2268E-01
     -6.690  0.4196E-01  0.1083E-01  0.4291E-01
     -6.630  0.5225E-01  0.1323E-01  0.6471E-01
     -6.570  0.6039E-01  0.1392E-01  0.8724E-01
     -6.510  0.6541E-01  0.1378E-01  0.1137E+00
     -6.450  0.6854E-01  0.1459E-01  0.1472E+00
     -6.390  0.7354E-01  0.1789E-01  0.1878E+00
     -6.330  0.8580E-01  0.2401E-01  0.2324E+00
     -6.270  0.1076E+00  0.3160E-01  0.2772E+00
     -6.210  0.1319E+00  0.3807E-01  0.3164E+00
     -6.150  0.1455E+00  0.4094E-01  0.3445E+00
     -6.090  0.1410E+00  0.3988E-01  0.3653E+00
     -6.030  0.1279E+00  0.3760E-01  0.3991E+00
     -5.970  0.1253E+00  0.3814E-01  0.4704E+00
     -5.910  0.1434E+00  0.4364E-01  0.5805E+00
     -5.850  0.1741E+00  0.5261E-01  0.6989E+00
     -5.790  0.2005E+00  0.6167E-01  0.7920E+00
     -5.730  0.2146E+00  0.6867E-01  0.8577E+00
     -5.670  0.2203E+00  0.7324E-01  0.9177E+00
     -5.610  0.2220E+00  0.7472E-01  0.9736E+00
     -5.550  0.2145E+00  0.7134E-01  0.9907E+00
     -5.490  0.1906E+00  0.6285E-01  0.9416E+00
     -5.430  0.1542E+00  0.5247E-01  0.8559E+00
     -5.370  0.1194E+00  0.4508E-01  0.8051E+00
     -5.310  0.9813E-01  0.4322E-01  0.8352E+00
     -5.251  0.9139E-01  0.4568E-01  0.9274E+00
     -5.191  0.9160E-01  0.4945E-01  0.1024E+01
     -5.131  0.9027E-01  0.5217E-01  0.1083E+01
     -5.071  0.8328E-01  0.5317E-01  0.1096E+01
     -5.011  0.7195E-01  0.5322E-01  0.1089E+01
     -4.951  0.6076E-01  0.5351E-01  0.1084E+01
     -4.891  0.5307E-01  0.5417E-01  0.1087E+01
     -4.831  0.4837E-01  0.5394E-01  0.1077E+01
     -4.771  0.4365E-01  0.5164E-01  0.1034E+01
     -4.711  0.3705E-01  0.4778E-01  0.9626E+00
     -4.651  0.2968E-01  0.4407E-01  0.8857E+00
     -4.591  0.2461E-01  0.4151E-01  0.8273E+00
     -4.531  0.2450E-01  0.3953E-01  0.8001E+00
     -4.471  0.2958E-01  0.3683E-01  0.8055E+00
     -4.411  0.3701E-01  0.3280E-01  0.8353E+00
     -4.351  0.4219E-01  0.2774E-01  0.8707E+00
     -4.291  0.4165E-01  0.2247E-01  0.8884E+00
     -4.231  0.3553E-01  0.1802E-01  0.8770E+00
     -4.171  0.2721E-01  0.1546E-01  0.8516E+00
     -4.111  0.2051E-01  0.1545E-01  0.8460E+00
     -4.051  0.1717E-01  0.1762E-01  0.8824E+00
     -3.991  0.1681E-01  0.2079E-01  0.9501E+00
     -3.931  0.1852E-01  0.2410E-01  0.1022E+01
     -3.871  0.2205E-01  0.2792E-01  0.1089E+01
     -3.812  0.2764E-01  0.3329E-01  0.1165E+01
     -3.752  0.3545E-01  0.4047E-01  0.1266E+01
     -3.692  0.4498E-01  0.4830E-01  0.1396E+01
     -3.632  0.5459E-01  0.5490E-01  0.1548E+01
     -3.572  0.6118E-01  0.5861E-01  0.1716E+01
     -3.512  0.6126E-01  0.5828E-01  0.1879E+01
     -3.452  0.5354E-01  0.5366E-01  0.1984E+01
     -3.392  0.4089E-01  0.4634E-01  0.1985E+01
     -3.332  0.2919E-01  0.3987E-01  0.1899E+01
     -3.272  0.2376E-01  0.3809E-01  0.1811E+01
     -3.212  0.2643E-01  0.4287E-01  0.1807E+01
     -3.152  0.3526E-01  0.5326E-01  0.1900E+01
     -3.092  0.4630E-01  0.6612E-01  0.2016E+01
     -3.032  0.5597E-01  0.7735E-01  0.2053E+01
     -2.972  0.6302E-01  0.8397E-01  0.1966E+01
     -2.912  0.6893E-01  0.8637E-01  0.1807E+01
     -2.852  0.7579E-01  0.8810E-01  0.1668E+01
     -2.792  0.8296E-01  0.9214E-01  0.1597E+01
     -2.732  0.8603E-01  0.9663E-01  0.1562E+01
     -2.672  0.7995E-01  0.9558E-01  0.1488E+01
     -2.612  0.6414E-01  0.8518E-01  0.1351E+01
     -2.552  0.4454E-01  0.6955E-01  0.1219E+01
     -2.492  0.2969E-01  0.5841E-01  0.1200E+01
     -2.432  0.2465E-01  0.5880E-01  0.1346E+01
     -2.373  0.2836E-01  0.7007E-01  0.1595E+01
     -2.313  0.3579E-01  0.8547E-01  0.1820E+01
     -2.253  0.4143E-01  0.9642E-01  0.1902E+01
     -2.193  0.4182E-01  0.9655E-01  0.1795E+01
     -2.133  0.3715E-01  0.8548E-01  0.1548E+01
     -2.073  0.3102E-01  0.6983E-01  0.1284E+01
     -2.013  0.2763E-01  0.5852E-01  0.1124E+01
     -1.953  0.2831E-01  0.5567E-01  0.1111E+01
     -1.893  0.3080E-01  0.5845E-01  0.1183E+01
     -1.833  0.3203E-01  0.6111E-01  0.1236E+01
     -1.773  0.3130E-01  0.6070E-01  0.1229E+01
     -1.713  0.3047E-01  0.5936E-01  0.1223E+01
     -1.653  0.3125E-01  0.6135E-01  0.1307E+01
     -1.593  0.3320E-01  0.6754E-01  0.1496E+01
     -1.533  0.3472E-01  0.7343E-01  0.1713E+01
     -1.473  0.3520E-01  0.7334E-01  0.1885E+01
     -1.413  0.3525E-01  0.6610E-01  0.2004E+01
     -1.353  0.3507E-01  0.5561E-01  0.2089E+01
     -1.293  0.3397E-01  0.4685E-01  0.2111E+01
     -1.233  0.3180E-01  0.4236E-01  0.2000E+01
     -1.173  0.3023E-01  0.4195E-01  0.1736E+01
     -1.113  0.3151E-01  0.4412E-01  0.1411E+01
     -1.053  0.3607E-01  0.4725E-01  0.1178E+01
     -0.993  0.4187E-01  0.5038E-01  0.1145E+01
     -0.934  0.4630E-01  0.5366E-01  0.1306E+01
     -0.874  0.4813E-01  0.5816E-01  0.1569E+01
     -0.814  0.4760E-01  0.6448E-01  0.1826E+01
     -0.754  0.4515E-01  0.7109E-01  0.2007E+01
     -0.694  0.4071E-01  0.7428E-01  0.2074E+01
     -0.634  0.3403E-01  0.7058E-01  0.2006E+01
     -0.574  0.2578E-01  0.5973E-01  0.1824E+01
     -0.514  0.1788E-01  0.4526E-01  0.1615E+01
     -0.454  0.1271E-01  0.3198E-01  0.1489E+01
     -0.394  0.1185E-01  0.2318E-01  0.1488E+01
     -0.334  0.1502E-01  0.1948E-01  0.1550E+01
     -0.274  0.1986E-01  0.1928E-01  0.1562E+01
     -0.214  0.2286E-01  0.2014E-01  0.1458E+01
     -0.154  0.2184E-01  0.2068E-01  0.1267E+01
     -0.094  0.1817E-01  0.2230E-01  0.1077E+01
     -0.034  0.1623E-01  0.2817E-01  0.9584E+00
      0.026  0.1994E-01  0.3950E-01  0.9142E+00
      0.086  0.2964E-01  0.5289E-01  0.8983E+00
      0.146  0.4174E-01  0.6216E-01  0.8578E+00
      0.206  0.5069E-01  0.6289E-01  0.7633E+00
      0.266  0.5186E-01  0.5510E-01  0.6158E+00
      0.326  0.4408E-01  0.4252E-01  0.4387E+00
      0.386  0.3036E-01  0.3021E-01  0.2660E+00
      0.445  0.1601E-01  0.2198E-01  0.1292E+00
      0.505  0.5651E-02  0.1900E-01  0.4775E-01
      0.565  0.1888E-02  0.2058E-01  0.2533E-01
      0.625  0.5728E-02  0.2602E-01  0.5132E-01
      0.685  0.1648E-01  0.3447E-01  0.1031E+00
      0.745  0.3040E-01  0.4332E-01  0.1512E+00
      0.805  0.4106E-01  0.4865E-01  0.1724E+00
      0.865  0.4332E-01  0.4862E-01  0.1633E+00
      0.925  0.3722E-01  0.4511E-01  0.1394E+00
      0.985  0.2723E-01  0.4115E-01  0.1195E+00
      1.045  0.1792E-01  0.3760E-01  0.1099E+00
      1.105  0.1137E-01  0.3348E-01  0.1056E+00
      1.165  0.7790E-02  0.2875E-01  0.1001E+00
      1.225  0.6800E-02  0.2501E-01  0.9132E-01
      1.285  0.7606E-02  0.2355E-01  0.7952E-01
      1.345  0.9023E-02  0.2370E-01  0.6624E-01
      1.405  0.1027E-01  0.2418E-01  0.5558E-01
      1.465  0.1154E-01  0.2512E-01  0.5354E-01
      1.525  0.1324E-01  0.2735E-01  0.6186E-01
      1.585  0.1468E-01  0.2971E-01  0.7290E-01
      1.645  0.1417E-01  0.2889E-01  0.7395E-01
      1.705  0.1092E-01  0.2284E-01  0.5896E-01
      1.765  0.6168E-02  0.1349E-01  0.3433E-01
      1.825  0.2056E-02  0.4996E-02  0.1214E-01
      1.884 -0.1815E-03  0.6194E-04 -0.3628E-03
      1.944 -0.7732E-03 -0.1472E-02 -0.3963E-02
      2.004 -0.5913E-03 -0.1251E-02 -0.3190E-02
      2.064 -0.2927E-03 -0.6605E-03 -0.1628E-02
      2.124 -0.1082E-03 -0.2587E-03 -0.6183E-03
      2.184 -0.3135E-04 -0.7943E-04 -0.1842E-03
      2.244 -0.7287E-05 -0.1961E-04 -0.4407E-04
      2.304 -0.1376E-05 -0.3944E-05 -0.8584E-05
      2.364 -0.2127E-06 -0.6517E-06 -0.1372E-05
      2.424 -0.2706E-07 -0.8892E-07 -0.1810E-06
      2.484 -0.2844E-08 -0.1005E-07 -0.1977E-07
      2.544 -0.2476E-09 -0.9443E-09 -0.1793E-08
      2.604 -0.1790E-10 -0.7379E-10 -0.1353E-09
      2.664 -0.1076E-11 -0.4803E-11 -0.8508E-11
      2.724 -0.5385E-13 -0.2606E-12 -0.4462E-12
      2.784 -0.2249E-14 -0.1181E-13 -0.1956E-13
      2.844 -0.7988E-16 -0.4412E-15 -0.7224E-15
      2.904 -0.7411E-18 -0.1463E-16 -0.1564E-16
      2.964  0.0000E+00  0.0000E+00  0.0000E+00
      3.024  0.0000E+00  0.0000E+00  0.0000E+00
      3.084  0.0000E+00  0.0000E+00  0.0000E+00
      3.144  0.0000E+00  0.0000E+00  0.0000E+00
      3.204  0.0000E+00  0.0000E+00  0.0000E+00
      3.264  0.0000E+00  0.0000E+00  0.0000E+00
      3.323  0.0000E+00  0.0000E+00  0.0000E+00
      3.383  0.0000E+00  0.0000E+00  0.0000E+00
      3.443  0.0000E+00  0.0000E+00  0.0000E+00
      3.503  0.0000E+00  0.0000E+00  0.0000E+00
      3.563 -0.8478E-32 -0.1508E-31 -0.6209E-32
      3.623 -0.1028E-29 -0.1826E-29 -0.7563E-30
      3.683 -0.1044E-27 -0.1854E-27 -0.7683E-28
      3.743 -0.8835E-26 -0.1569E-25 -0.6511E-26
      3.803 -0.6237E-24 -0.1108E-23 -0.4602E-24
      3.863 -0.3671E-22 -0.6517E-22 -0.2712E-22
      3.923 -0.1801E-20 -0.3196E-20 -0.1332E-20
      3.983 -0.7362E-19 -0.1306E-18 -0.5456E-19
      4.043 -0.2415E-17 -0.4281E-17 -0.1794E-17
      4.103 -0.6879E-16 -0.1219E-15 -0.5121E-16
      4.163 -0.1616E-14 -0.2863E-14 -0.1206E-14
      4.223 -0.3157E-13 -0.5588E-13 -0.2365E-13
      4.283 -0.5121E-12 -0.9057E-12 -0.3851E-12
      4.343 -0.6891E-11 -0.1217E-10 -0.5205E-11
      4.403 -0.7679E-10 -0.1355E-09 -0.5831E-10
      4.463 -0.7074E-09 -0.1246E-08 -0.5405E-09
      4.523 -0.5372E-08 -0.9451E-08 -0.4136E-08
      4.583 -0.3351E-07 -0.5884E-07 -0.2603E-07
      4.643 -0.1708E-06 -0.2992E-06 -0.1341E-06
      4.703 -0.7054E-06 -0.1232E-05 -0.5609E-06
      4.762 -0.2328E-05 -0.4049E-05 -0.1881E-05
      4.822 -0.5980E-05 -0.1035E-04 -0.4937E-05
      4.882 -0.1127E-04 -0.1933E-04 -0.9619E-05
      4.942 -0.1283E-04 -0.2146E-04 -0.1179E-04
      5.002  0.2417E-05  0.6100E-05 -0.5916E-06
      5.062  0.4927E-04  0.8896E-04  0.3747E-04
      5.122  0.1269E-03  0.2255E-03  0.1041E-03
      5.182  0.2059E-03  0.3643E-03  0.1764E-03
      5.242  0.2440E-03  0.4282E-03  0.2178E-03
      5.302  0.2254E-03  0.3795E-03  0.2120E-03
      5.362  0.1815E-03  0.2565E-03  0.1838E-03
      5.422  0.1590E-03  0.1369E-03  0.1737E-03
      5.482  0.1706E-03  0.6875E-04  0.1911E-03
      5.542  0.1893E-03  0.4625E-04  0.2090E-03
      5.602  0.1921E-03  0.4254E-04  0.2092E-03
      5.662  0.1937E-03  0.4845E-04  0.2176E-03
      5.722  0.2206E-03  0.7402E-04  0.2727E-03
      5.782  0.2636E-03  0.1216E-03  0.3644E-03
      5.842  0.2770E-03  0.1687E-03  0.4257E-03
      5.902  0.2295E-03  0.1828E-03  0.3959E-03
      5.962  0.1392E-03  0.1510E-03  0.2801E-03
      6.022  0.5271E-04  0.9123E-04  0.1401E-03
      6.082  0.1557E-05  0.3500E-04  0.3653E-04
      6.142 -0.1453E-04  0.1743E-05 -0.1162E-04
      6.201 -0.1245E-04 -0.9022E-05 -0.2048E-04
      6.261 -0.6540E-05 -0.7966E-05 -0.1399E-04
      6.321 -0.2540E-05 -0.4255E-05 -0.6593E-05
      6.381 -0.7727E-06 -0.1672E-05 -0.2383E-05
      6.441 -0.1892E-06 -0.5120E-06 -0.6860E-06
      6.501 -0.3786E-07 -0.1254E-06 -0.1602E-06
      6.561 -0.6249E-08 -0.2492E-07 -0.3066E-07
      6.621 -0.8563E-09 -0.4046E-08 -0.4833E-08
      6.681 -0.9791E-10 -0.5399E-09 -0.6297E-09
      6.741 -0.9373E-11 -0.5939E-10 -0.6799E-10
      6.801 -0.7529E-12 -0.5402E-11 -0.6092E-11
      6.861 -0.5084E-13 -0.4069E-12 -0.4535E-12
      6.921 -0.2888E-14 -0.2543E-13 -0.2807E-13
      6.981 -0.1379E-15 -0.1319E-14 -0.1445E-14
      7.041 -0.5760E-17 -0.5690E-16 -0.6217E-16
      7.101 -0.1403E-18 -0.1971E-17 -0.2099E-17
      7.161 -0.8768E-20 -0.1232E-18 -0.1312E-18
      7.221  0.0000E+00  0.0000E+00  0.0000E+00
      7.281  0.0000E+00  0.0000E+00  0.0000E+00
      7.341  0.0000E+00  0.0000E+00  0.0000E+00
      7.401  0.0000E+00  0.0000E+00  0.0000E+00
      7.461  0.0000E+00  0.0000E+00  0.0000E+00
      7.521  0.0000E+00  0.0000E+00  0.0000E+00
      7.581  0.0000E+00  0.0000E+00  0.0000E+00
      7.640  0.0000E+00  0.0000E+00  0.0000E+00
      7.700  0.0000E+00  0.0000E+00  0.0000E+00
      7.760  0.0000E+00  0.0000E+00  0.0000E+00
      7.820  0.0000E+00  0.0000E+00  0.0000E+00
      7.880  0.0000E+00  0.0000E+00  0.0000E+00
      7.88030664    -10.10713558  301     -0.76103610      1.00000000
    -10.107  0.0000E+00  0.0000E+00  0.0000E+00
    -10.047  0.0000E+00  0.0000E+00  0.0000E+00
     -9.987  0.0000E+00  0.0000E+00  0.0000E+00
     -9.927  0.0000E+00  0.0000E+00  0.0000E+00
     -9.867  0.0000E+00  0.0000E+00  0.0000E+00
     -9.807  0.0000E+00  0.0000E+00  0.0000E+00
     -9.747 -0.1228E-30 -0.1456E-31 -0.8029E-35
     -9.687 -0.1466E-28 -0.1738E-29 -0.9580E-33
     -9.627 -0.1469E-26 -0.1742E-27 -0.9763E-31
     -9.568 -0.1228E-24 -0.1456E-25 -0.8227E-29
     -9.508 -0.8556E-23 -0.1014E-23 -0.5805E-27
     -9.448 -0.4970E-21 -0.5893E-22 -0.3436E-25
     -9.388 -0.2406E-19 -0.2853E-20 -0.1710E-23
     -9.328 -0.9703E-18 -0.1151E-18 -0.7183E-22
     -9.268 -0.3164E-16 -0.3752E-17 -0.2496E-20
     -9.208 -0.8819E-15 -0.1046E-15 -0.7584E-19
     -9.148 -0.2044E-13 -0.2425E-14 -0.1955E-17
     -9.088 -0.3940E-12 -0.4675E-13 -0.4413E-16
     -9.028 -0.6308E-11 -0.7487E-12 -0.8603E-15
     -8.968 -0.8384E-10 -0.9956E-11 -0.1457E-13
     -8.908 -0.9241E-09 -0.1098E-09 -0.2134E-12
     -8.848 -0.8441E-08 -0.1004E-08 -0.2688E-11
     -8.788 -0.6383E-07 -0.7611E-08 -0.2886E-10
     -8.728 -0.3993E-06 -0.4774E-07 -0.2619E-09
     -8.668 -0.2064E-05 -0.2479E-06 -0.1991E-08
     -8.608 -0.8804E-05 -0.1064E-05 -0.1258E-07
     -8.548 -0.3094E-04 -0.3777E-05 -0.6541E-07
     -8.488 -0.8917E-04 -0.1104E-04 -0.2772E-06
     -8.428 -0.2080E-03 -0.2626E-04 -0.9433E-06
     -8.368 -0.3787E-03 -0.4917E-04 -0.2519E-05
     -8.308 -0.4732E-03 -0.6464E-04 -0.5032E-05
     -8.248 -0.1382E-03 -0.2747E-04 -0.6604E-05
     -8.188  0.1199E-02  0.1390E-03 -0.2318E-05
     -8.129  0.3992E-02  0.4983E-03  0.1322E-04
     -8.069  0.7904E-02  0.1010E-02  0.3879E-04
     -8.009  0.1147E-01  0.1480E-02  0.6358E-04
     -7.949  0.1299E-01  0.1692E-02  0.8030E-04
     -7.889  0.1230E-01  0.1647E-02  0.1080E-03
     -7.829  0.1143E-01  0.1645E-02  0.1931E-03
     -7.769  0.1266E-01  0.2005E-02  0.3690E-03
     -7.709  0.1605E-01  0.2694E-02  0.6028E-03
     -7.649  0.1909E-01  0.3275E-02  0.7858E-03
     -7.589  0.1889E-01  0.3263E-02  0.7970E-03
     -7.529  0.1480E-01  0.2557E-02  0.6139E-03
     -7.469  0.9229E-02  0.1612E-02  0.3962E-03
     -7.409  0.6135E-02  0.1202E-02  0.4381E-03
     -7.349  0.8154E-02  0.1857E-02  0.9560E-03
     -7.289  0.1432E-01  0.3370E-02  0.1853E-02
     -7.229  0.2063E-01  0.4876E-02  0.2722E-02
     -7.169  0.2342E-01  0.5542E-02  0.3121E-02
     -7.109  0.2239E-01  0.5200E-02  0.2801E-02
     -7.049  0.2001E-01  0.4256E-02  0.1676E-02
     -6.989  0.1866E-01  0.3202E-02 -0.9085E-04
     -6.929  0.1895E-01  0.2466E-02 -0.1460E-02
     -6.869  0.2080E-01  0.2620E-02  0.7641E-04
     -6.809  0.2484E-01  0.4257E-02  0.7668E-02
     -6.749  0.3201E-01  0.7343E-02  0.2264E-01
     -6.690  0.4189E-01  0.1082E-01  0.4281E-01
     -6.630  0.5217E-01  0.1321E-01  0.6453E-01
     -6.570  0.6029E-01  0.1389E-01  0.8695E-01
     -6.510  0.6531E-01  0.1374E-01  0.1132E+00
     -6.450  0.6845E-01  0.1455E-01  0.1467E+00
     -6.390  0.7343E-01  0.1784E-01  0.1871E+00
     -6.330  0.8564E-01  0.2394E-01  0.2315E+00
     -6.270  0.1073E+00  0.3152E-01  0.2762E+00
     -6.210  0.1316E+00  0.3798E-01  0.3153E+00
     -6.150  0.1451E+00  0.4084E-01  0.3434E+00
     -6.090  0.1407E+00  0.3979E-01  0.3642E+00
     -6.030  0.1276E+00  0.3753E-01  0.3980E+00
     -5.970  0.1250E+00  0.3808E-01  0.4691E+00
     -5.910  0.1431E+00  0.4359E-01  0.5789E+00
     -5.850  0.1738E+00  0.5255E-01  0.6971E+00
     -5.790  0.2003E+00  0.6162E-01  0.7901E+00
     -5.730  0.2146E+00  0.6864E-01  0.8558E+00
     -5.670  0.2205E+00  0.7325E-01  0.9157E+00
     -5.610  0.2223E+00  0.7476E-01  0.9716E+00
     -5.550  0.2149E+00  0.7140E-01  0.9892E+00
     -5.490  0.1911E+00  0.6290E-01  0.9407E+00
     -5.430  0.1546E+00  0.5251E-01  0.8555E+00
     -5.370  0.1197E+00  0.4510E-01  0.8046E+00
     -5.310  0.9832E-01  0.4321E-01  0.8343E+00
     -5.251  0.9152E-01  0.4566E-01  0.9261E+00
     -5.191  0.9172E-01  0.4943E-01  0.1023E+01
     -5.131  0.9041E-01  0.5215E-01  0.1081E+01
     -5.071  0.8342E-01  0.5316E-01  0.1095E+01
     -5.011  0.7207E-01  0.5323E-01  0.1088E+01
     -4.951  0.6085E-01  0.5354E-01  0.1084E+01
     -4.891  0.5314E-01  0.5421E-01  0.1088E+01
     -4.831  0.4843E-01  0.5399E-01  0.1078E+01
     -4.771  0.4370E-01  0.5169E-01  0.1035E+01