  96  96   1   0
  0.3282743E+02  0.1082531E-08  0.1082043E-08  0.3107544E-08  0.0000000E+00
  1.000000000000000E-004
  CAR 
 unknown system                          
     15.93600700    -10.83616830  301      0.36202880      1.00000000
    -10.836  0.0000E+00  0.0000E+00
    -10.747  0.0000E+00  0.0000E+00
    -10.658  0.0000E+00  0.0000E+00
    -10.568  0.0000E+00  0.0000E+00
    -10.479 -0.2595E-31 -0.2316E-32
    -10.390 -0.4859E-25 -0.4336E-26
    -10.301 -0.1825E-19 -0.1629E-20
    -10.211 -0.1370E-14 -0.1223E-15
    -10.122 -0.1965E-10 -0.1754E-11
    -10.033 -0.5665E-07 -0.5057E-08
     -9.944 -0.3107E-04 -0.2778E-05
     -9.855 -0.3031E-02 -0.2732E-03
     -9.765 -0.4011E-01 -0.3853E-02
     -9.676  0.9340E-01  0.4482E-02
     -9.587  0.7723E+00  0.7341E-01
     -9.498  0.3772E+01  0.4100E+00
     -9.408  0.4868E+01  0.8444E+00
     -9.319  0.3282E+00  0.8737E+00
     -9.230  0.4218E+01  0.1250E+01
     -9.141  0.6457E+01  0.1826E+01
     -9.051  0.2854E+01  0.2081E+01
     -8.962  0.2583E+01  0.2312E+01
     -8.873  0.3080E+01  0.2586E+01
     -8.784  0.1026E+02  0.3502E+01
     -8.694  0.6544E+01  0.4086E+01
     -8.605  0.4598E+01  0.4497E+01
     -8.516  0.3508E+01  0.4810E+01
     -8.427  0.8981E+01  0.5611E+01
     -8.337  0.1234E+02  0.6712E+01
     -8.248  0.2772E+01  0.6960E+01
     -8.159 -0.2791E+00  0.6935E+01
     -8.070  0.3889E+01  0.7282E+01
     -7.980  0.1786E+02  0.8876E+01
     -7.891  0.1664E+02  0.1036E+02
     -7.802  0.9730E+01  0.1123E+02
     -7.713  0.6130E+01  0.1178E+02
     -7.624  0.6839E+01  0.1239E+02
     -7.534  0.9577E+01  0.1324E+02
     -7.445  0.1064E+02  0.1419E+02
     -7.356  0.1547E+02  0.1557E+02
     -7.267  0.2107E+02  0.1745E+02
     -7.177  0.1674E+02  0.1895E+02
     -7.088  0.1253E+02  0.2006E+02
     -6.999  0.1815E+02  0.2168E+02
     -6.910  0.1648E+02  0.2315E+02
     -6.820  0.2152E+02  0.2507E+02
     -6.731  0.3610E+02  0.2829E+02
     -6.642  0.4432E+02  0.3225E+02
     -6.553  0.5183E+02  0.3688E+02
     -6.463  0.4840E+02  0.4119E+02
     -6.374  0.5580E+02  0.4617E+02
     -6.285  0.6293E+02  0.5179E+02
     -6.196  0.6678E+02  0.5775E+02
     -6.106  0.6502E+02  0.6355E+02
     -6.017  0.7184E+02  0.6996E+02
     -5.928  0.8154E+02  0.7724E+02
     -5.839  0.8850E+02  0.8514E+02
     -5.749  0.9307E+02  0.9344E+02
     -5.660  0.8778E+02  0.1013E+03
     -5.571  0.8226E+02  0.1086E+03
     -5.482  0.8750E+02  0.1164E+03
     -5.392  0.9573E+02  0.1250E+03
     -5.303  0.9682E+02  0.1336E+03
     -5.214  0.9408E+02  0.1420E+03
     -5.125  0.9648E+02  0.1506E+03
     -5.036  0.1014E+03  0.1597E+03
     -4.946  0.9962E+02  0.1686E+03
     -4.857  0.9123E+02  0.1767E+03
     -4.768  0.8805E+02  0.1846E+03
     -4.679  0.9638E+02  0.1932E+03
     -4.589  0.1017E+03  0.2022E+03
     -4.500  0.9915E+02  0.2111E+03
     -4.411  0.9656E+02  0.2197E+03
     -4.322  0.9150E+02  0.2279E+03
     -4.232  0.9487E+02  0.2363E+03
     -4.143  0.1019E+03  0.2454E+03
     -4.054  0.9755E+02  0.2541E+03
     -3.965  0.9651E+02  0.2627E+03
     -3.875  0.1030E+03  0.2719E+03
     -3.786  0.1035E+03  0.2812E+03
     -3.697  0.1093E+03  0.2909E+03
     -3.608  0.1187E+03  0.3015E+03
     -3.518  0.1256E+03  0.3127E+03
     -3.429  0.1311E+03  0.3244E+03
     -3.340  0.1280E+03  0.3359E+03
     -3.251  0.1280E+03  0.3473E+03
     -3.161  0.1387E+03  0.3597E+03
     -3.072  0.1475E+03  0.3728E+03
     -2.983  0.1630E+03  0.3874E+03
     -2.894  0.1900E+03  0.4043E+03
     -2.805  0.2075E+03  0.4228E+03
     -2.715  0.2150E+03  0.4420E+03
     -2.626  0.2177E+03  0.4615E+03
     -2.537  0.2287E+03  0.4819E+03
     -2.448  0.2371E+03  0.5030E+03
     -2.358  0.2258E+03  0.5232E+03
     -2.269  0.2315E+03  0.5438E+03
     -2.180  0.2502E+03  0.5662E+03
     -2.091  0.2238E+03  0.5861E+03
     -2.001  0.1692E+03  0.6012E+03
     -1.912  0.1549E+03  0.6151E+03
     -1.823  0.1829E+03  0.6314E+03
     -1.734  0.1951E+03  0.6488E+03
     -1.644  0.1856E+03  0.6654E+03
     -1.555  0.1683E+03  0.6804E+03
     -1.466  0.1609E+03  0.6947E+03
     -1.377  0.1516E+03  0.7083E+03
     -1.287  0.1477E+03  0.7214E+03
     -1.198  0.1429E+03  0.7342E+03
     -1.109  0.1306E+03  0.7459E+03
     -1.020  0.1221E+03  0.7568E+03
     -0.930  0.1231E+03  0.7677E+03
     -0.841  0.1270E+03  0.7791E+03
     -0.752  0.1317E+03  0.7908E+03
     -0.663  0.1316E+03  0.8026E+03
     -0.574  0.1231E+03  0.8135E+03
     -0.484  0.1233E+03  0.8245E+03
     -0.395  0.1228E+03  0.8355E+03
     -0.306  0.1183E+03  0.8461E+03
     -0.217  0.1158E+03  0.8564E+03
     -0.127  0.1051E+03  0.8658E+03
     -0.038  0.1060E+03  0.8752E+03
      0.051  0.1062E+03  0.8847E+03
      0.140  0.1057E+03  0.8942E+03
      0.230  0.1068E+03  0.9037E+03
      0.319  0.1080E+03  0.9133E+03
      0.408  0.1086E+03  0.9230E+03
      0.497  0.1134E+03  0.9331E+03
      0.587  0.1151E+03  0.9434E+03
      0.676  0.1199E+03  0.9541E+03
      0.765  0.1204E+03  0.9649E+03
      0.854  0.1146E+03  0.9751E+03
      0.944  0.1023E+03  0.9842E+03
      1.033  0.9755E+02  0.9929E+03
      1.122  0.8989E+02  0.1001E+04
      1.211  0.7234E+02  0.1007E+04
      1.301  0.6559E+02  0.1013E+04
      1.390  0.5531E+02  0.1018E+04
      1.479  0.4509E+02  0.1022E+04
      1.568  0.4227E+02  0.1026E+04
      1.658  0.4573E+02  0.1030E+04
      1.747  0.4783E+02  0.1034E+04
      1.836  0.4990E+02  0.1039E+04
      1.925  0.5077E+02  0.1043E+04
      2.014  0.4040E+02  0.1047E+04
      2.104  0.3430E+02  0.1050E+04
      2.193  0.2506E+02  0.1052E+04
      2.282  0.1894E+02  0.1054E+04
      2.371  0.2688E+02  0.1056E+04
      2.461  0.3282E+02  0.1059E+04
      2.550  0.3133E+02  0.1062E+04
      2.639  0.2883E+02  0.1065E+04
      2.728  0.3714E+02  0.1068E+04
      2.818  0.4508E+02  0.1072E+04
      2.907  0.2912E+02  0.1075E+04
      2.996  0.1688E+02  0.1076E+04
      3.085  0.2662E+02  0.1078E+04
      3.175  0.3441E+02  0.1081E+04
      3.264  0.2945E+02  0.1084E+04
      3.353  0.2360E+02  0.1086E+04
      3.442  0.2764E+02  0.1089E+04
      3.532  0.3390E+02  0.1092E+04
      3.621  0.2881E+02  0.1094E+04
      3.710  0.2465E+02  0.1096E+04
      3.799  0.2795E+02  0.1099E+04
      3.889  0.3812E+02  0.1102E+04
      3.978  0.3428E+02  0.1105E+04
      4.067  0.2956E+02  0.1108E+04
      4.156  0.3158E+02  0.1111E+04
      4.245  0.2841E+02  0.1113E+04
      4.335  0.2440E+02  0.1116E+04
      4.424  0.2494E+02  0.1118E+04
      4.513  0.2438E+02  0.1120E+04
      4.602  0.2768E+02  0.1122E+04
      4.692  0.2887E+02  0.1125E+04
      4.781  0.2287E+02  0.1127E+04
      4.870  0.2172E+02  0.1129E+04
      4.959  0.2603E+02  0.1131E+04
      5.049  0.2082E+02  0.1133E+04
      5.138  0.2001E+02  0.1135E+04
      5.227  0.1889E+02  0.1137E+04
      5.316  0.1850E+02  0.1138E+04
      5.406  0.1851E+02  0.1140E+04
      5.495  0.2291E+02  0.1142E+04
      5.584  0.3238E+02  0.1145E+04
      5.673  0.3483E+02  0.1148E+04
      5.763  0.3688E+02  0.1151E+04
      5.852  0.3719E+02  0.1155E+04
      5.941  0.3190E+02  0.1157E+04
      6.030  0.2730E+02  0.1160E+04
      6.120  0.2678E+02  0.1162E+04
      6.209  0.2660E+02  0.1165E+04
      6.298  0.3696E+02  0.1168E+04
      6.387  0.3404E+02  0.1171E+04
      6.477  0.3840E+02  0.1174E+04
      6.566  0.4622E+02  0.1179E+04
      6.655  0.4451E+02  0.1183E+04
      6.744  0.4245E+02  0.1186E+04
      6.833  0.5123E+02  0.1191E+04
      6.923  0.5556E+02  0.1196E+04
      7.012  0.4639E+02  0.1200E+04
      7.101  0.4733E+02  0.1204E+04
      7.190  0.5017E+02  0.1209E+04
      7.280  0.5345E+02  0.1213E+04
      7.369  0.5330E+02  0.1218E+04
      7.458  0.5087E+02  0.1223E+04
      7.547  0.5980E+02  0.1228E+04
      7.637  0.5192E+02  0.1233E+04
      7.726  0.4524E+02  0.1237E+04
      7.815  0.5921E+02  0.1242E+04
      7.904  0.5314E+02  0.1247E+04
      7.994  0.4776E+02  0.1251E+04
      8.083  0.4965E+02  0.1255E+04
      8.172  0.5559E+02  0.1260E+04
      8.261  0.5547E+02  0.1265E+04
      8.351  0.5298E+02  0.1270E+04
      8.440  0.5131E+02  0.1275E+04
      8.529  0.5722E+02  0.1280E+04
      8.618  0.5527E+02  0.1285E+04
      8.708  0.5818E+02  0.1290E+04
      8.797  0.5801E+02  0.1295E+04
      8.886  0.4330E+02  0.1299E+04
      8.975  0.4805E+02  0.1303E+04
      9.064  0.6212E+02  0.1309E+04
      9.154  0.6147E+02  0.1314E+04
      9.243  0.5511E+02  0.1319E+04
      9.332  0.5211E+02  0.1324E+04
      9.421  0.4946E+02  0.1328E+04
      9.511  0.5228E+02  0.1333E+04
      9.600  0.5070E+02  0.1337E+04
      9.689  0.5793E+02  0.1343E+04
      9.778  0.6155E+02  0.1348E+04
      9.868  0.5622E+02  0.1353E+04
      9.957  0.5597E+02  0.1358E+04
     10.046  0.6261E+02  0.1364E+04
     10.135  0.6887E+02  0.1370E+04
     10.225  0.5968E+02  0.1375E+04
     10.314  0.6780E+02  0.1381E+04
     10.403  0.6966E+02  0.1387E+04
     10.492  0.5795E+02  0.1393E+04
     10.582  0.5225E+02  0.1397E+04
     10.671  0.6244E+02  0.1403E+04
     10.760  0.6870E+02  0.1409E+04
     10.849  0.6437E+02  0.1415E+04
     10.939  0.6280E+02  0.1420E+04
     11.028  0.6359E+02  0.1426E+04
     11.117  0.6659E+02  0.1432E+04
     11.206  0.6981E+02  0.1438E+04
     11.295  0.7318E+02  0.1445E+04
     11.385  0.7160E+02  0.1451E+04
     11.474  0.7063E+02  0.1457E+04
     11.563  0.6360E+02  0.1463E+04
     11.652  0.6365E+02  0.1469E+04
     11.742  0.7177E+02  0.1475E+04
     11.831  0.7323E+02  0.1482E+04
     11.920  0.6702E+02  0.1488E+04
     12.009  0.6503E+02  0.1494E+04
     12.099  0.7069E+02  0.1500E+04
     12.188  0.7569E+02  0.1507E+04
     12.277  0.7993E+02  0.1514E+04
     12.366  0.7966E+02  0.1521E+04
     12.456  0.8157E+02  0.1528E+04
     12.545  0.7844E+02  0.1535E+04
     12.634  0.7806E+02  0.1542E+04
     12.723  0.8223E+02  0.1549E+04
     12.813  0.8412E+02  0.1557E+04
     12.902  0.8406E+02  0.1564E+04
     12.991  0.8320E+02  0.1572E+04
     13.080  0.8036E+02  0.1579E+04
     13.170  0.8241E+02  0.1586E+04
     13.259  0.7725E+02  0.1593E+04
     13.348  0.7037E+02  0.1600E+04
     13.437  0.7378E+02  0.1606E+04
     13.527  0.6568E+02  0.1612E+04
     13.616  0.6399E+02  0.1618E+04
     13.705  0.8068E+02  0.1625E+04
     13.794  0.8644E+02  0.1633E+04
     13.883  0.8058E+02  0.1640E+04
     13.973  0.7811E+02  0.1647E+04
     14.062  0.7739E+02  0.1654E+04
     14.151  0.8546E+02  0.1661E+04
     14.240  0.8944E+02  0.1669E+04
     14.330  0.8732E+02  0.1677E+04
     14.419  0.8268E+02  0.1684E+04
     14.508  0.7171E+02  0.1691E+04
     14.597  0.5473E+02  0.1696E+04
     14.687  0.3544E+02  0.1699E+04
     14.776  0.1302E+02  0.1700E+04
     14.865 -0.2598E+00  0.1700E+04
     14.954 -0.4280E+00  0.1700E+04
     15.044 -0.1890E-01  0.1700E+04
     15.133 -0.1445E-03  0.1700E+04
     15.222 -0.2145E-06  0.1700E+04
     15.311 -0.6362E-10  0.1700E+04
     15.401 -0.3421E-14  0.1700E+04
     15.490  0.0000E+00  0.1700E+04
     15.579  0.0000E+00  0.1700E+04
     15.668  0.0000E+00  0.1700E+04
     15.758  0.0000E+00  0.1700E+04
     15.847  0.0000E+00  0.1700E+04
     15.936  0.0000E+00  0.1700E+04
     15.93600700    -10.83616830  301      0.36202880      1.00000000
    -10.836  0.0000E+00  0.0000E+00  0.0000E+00
    -10.747  0.0000E+00  0.0000E+00  0.0000E+00
    -10.658  0.0000E+00  0.0000E+00  0.0000E+00
    -10.568  0.0000E+00  0.0000E+00  0.0000E+00
    -10.479 -0.3081E-34 -0.3317E-35 -0.6064E-36
    -10.390 -0.5769E-28 -0.6211E-29 -0.1135E-29
    -10.301 -0.2167E-22 -0.2333E-23 -0.4264E-24
    -10.211 -0.1627E-17 -0.1751E-18 -0.3201E-19
    -10.122 -0.2333E-13 -0.2512E-14 -0.4591E-15
    -10.033 -0.6726E-10 -0.7241E-11 -0.1324E-11
     -9.944 -0.3689E-07 -0.3972E-08 -0.7261E-09
     -9.855 -0.3598E-05 -0.3875E-06 -0.7086E-07
     -9.765 -0.4756E-04 -0.5166E-05 -0.9509E-06
     -9.676  0.1139E-03  0.1040E-04  0.1638E-05
     -9.587  0.9236E-03  0.9581E-04  0.1701E-04
     -9.498  0.4352E-02  0.5464E-03  0.1108E-03
     -9.408  0.5593E-02  0.7098E-03  0.1440E-03
     -9.319  0.3970E-03  0.4745E-04  0.8502E-05
     -9.230  0.4665E-02  0.7836E-03  0.2119E-03
     -9.141  0.6482E-02  0.1122E-02  0.3132E-03
     -9.051  0.2685E-02  0.5440E-03  0.1617E-03
     -8.962  0.3698E-02  0.6874E-03  0.2274E-03
     -8.873  0.9495E-02  0.1086E-02  0.4955E-03
     -8.784  0.2982E-01  0.4133E-02  0.1920E-02
     -8.694  0.1608E-01  0.2474E-02  0.1130E-02
     -8.605  0.3708E-02  0.8011E-03  0.2880E-03
     -8.516  0.3744E-02  0.7750E-03  0.3821E-03
     -8.427  0.1546E-01  0.2834E-02  0.1287E-02
     -8.337  0.2359E-01  0.3710E-02  0.1488E-02
     -8.248  0.7915E-02  0.8438E-03  0.3496E-03
     -8.159  0.1823E-02 -0.8918E-04 -0.5739E-04
     -8.070  0.5473E-02  0.1472E-02  0.1265E-02
     -7.980  0.3102E-01  0.6326E-02  0.5408E-02
     -7.891  0.5670E-01  0.7193E-02  0.4783E-02
     -7.802  0.5631E-01  0.5241E-02  0.4230E-02
     -7.713  0.5633E-01  0.3721E-02  0.5752E-02
     -7.624  0.4515E-01  0.3251E-02  0.4769E-02
     -7.534  0.5850E-01  0.5328E-02  0.7148E-02
     -7.445  0.7314E-01  0.7564E-02  0.9847E-02
     -7.356  0.6842E-01  0.9636E-02  0.1059E-01
     -7.267  0.9698E-01  0.1147E-01  0.1377E-01
     -7.177  0.8184E-01  0.9862E-02  0.1308E-01
     -7.088  0.7881E-01  0.8634E-02  0.1180E-01
     -6.999  0.1300E+00  0.1549E-01  0.1776E-01
     -6.910  0.9587E-01  0.1236E-01  0.1551E-01
     -6.820  0.5929E-01  0.1029E-01  0.2066E-01
     -6.731  0.1143E+00  0.1707E-01  0.3757E-01
     -6.642  0.1603E+00  0.1889E-01  0.6136E-01
     -6.553  0.1661E+00  0.1997E-01  0.7736E-01
     -6.463  0.1253E+00  0.2018E-01  0.7719E-01
     -6.374  0.1223E+00  0.3075E-01  0.1019E+00
     -6.285  0.1319E+00  0.4024E-01  0.1329E+00
     -6.196  0.9518E-01  0.3752E-01  0.1127E+00
     -6.106  0.6814E-01  0.2926E-01  0.9682E-01
     -6.017  0.1345E+00  0.3400E-01  0.1356E+00
     -5.928  0.1819E+00  0.3699E-01  0.1757E+00
     -5.839  0.1696E+00  0.3663E-01  0.2050E+00
     -5.749  0.1680E+00  0.3784E-01  0.2535E+00
     -5.660  0.1546E+00  0.4310E-01  0.3192E+00
     -5.571  0.1461E+00  0.4682E-01  0.4165E+00
     -5.482  0.1586E+00  0.4527E-01  0.5944E+00
     -5.392  0.2045E+00  0.4752E-01  0.7407E+00
     -5.303  0.1994E+00  0.5431E-01  0.7573E+00
     -5.214  0.1660E+00  0.5942E-01  0.7013E+00
     -5.125  0.1551E+00  0.5708E-01  0.6179E+00
     -5.036  0.1358E+00  0.6001E-01  0.5798E+00
     -4.946  0.1124E+00  0.6401E-01  0.5656E+00
     -4.857  0.1194E+00  0.5627E-01  0.5761E+00
     -4.768  0.1205E+00  0.4600E-01  0.5894E+00
     -4.679  0.1437E+00  0.5311E-01  0.5646E+00
     -4.589  0.1366E+00  0.5896E-01  0.6185E+00
     -4.500  0.1005E+00  0.6113E-01  0.7020E+00
     -4.411  0.8757E-01  0.6157E-01  0.7198E+00
     -4.322  0.7191E-01  0.5208E-01  0.7124E+00
     -4.232  0.5569E-01  0.5671E-01  0.8796E+00
     -4.143  0.6946E-01  0.6824E-01  0.1037E+01
     -4.054  0.5333E-01  0.6088E-01  0.1030E+01
     -3.965  0.3282E-01  0.6804E-01  0.1183E+01
     -3.875  0.3327E-01  0.7083E-01  0.1208E+01
     -3.786  0.2724E-01  0.6407E-01  0.9854E+00
     -3.697  0.2257E-01  0.6411E-01  0.9931E+00
     -3.608  0.2605E-01  0.6380E-01  0.1014E+01
     -3.518  0.3130E-01  0.6284E-01  0.9078E+00
     -3.429  0.3306E-01  0.5932E-01  0.8364E+00
     -3.340  0.3661E-01  0.4788E-01  0.7369E+00
     -3.251  0.4022E-01  0.4047E-01  0.7776E+00
     -3.161  0.4222E-01  0.4880E-01  0.8644E+00
     -3.072  0.4954E-01  0.5807E-01  0.9035E+00
     -2.983  0.4825E-01  0.6691E-01  0.1020E+01
     -2.894  0.4961E-01  0.6674E-01  0.1151E+01
     -2.805  0.5683E-01  0.6166E-01  0.1268E+01
     -2.715  0.5211E-01  0.6893E-01  0.1423E+01
     -2.626  0.5791E-01  0.9690E-01  0.1446E+01
     -2.537  0.8761E-01  0.1282E+00  0.1469E+01
     -2.448  0.9091E-01  0.1140E+00  0.1647E+01
     -2.358  0.6603E-01  0.1102E+00  0.2016E+01
     -2.269  0.5364E-01  0.9632E-01  0.1990E+01
     -2.180  0.5781E-01  0.9762E-01  0.1721E+01
     -2.091  0.5569E-01  0.1048E+00  0.1377E+01
     -2.001  0.4383E-01  0.1008E+00  0.1126E+01
     -1.912  0.2928E-01  0.8231E-01  0.8070E+00
     -1.823  0.4082E-01  0.1299E+00  0.9621E+00
     -1.734  0.6418E-01  0.1610E+00  0.1117E+01
     -1.644  0.6111E-01  0.1366E+00  0.1060E+01
     -1.555  0.5465E-01  0.1376E+00  0.1126E+01
     -1.466  0.6543E-01  0.1488E+00  0.1225E+01
     -1.377  0.5735E-01  0.1123E+00  0.1123E+01
     -1.287  0.4541E-01  0.8223E-01  0.1070E+01
     -1.198  0.4979E-01  0.8580E-01  0.1210E+01
     -1.109  0.5252E-01  0.8176E-01  0.1323E+01
     -1.020  0.4670E-01  0.7841E-01  0.1181E+01
     -0.930  0.4095E-01  0.8185E-01  0.1071E+01
     -0.841  0.4738E-01  0.9858E-01  0.1123E+01
     -0.752  0.5129E-01  0.1014E+00  0.1245E+01
     -0.663  0.5685E-01  0.8944E-01  0.1404E+01
     -0.574  0.6275E-01  0.9608E-01  0.1596E+01
     -0.484  0.5942E-01  0.1030E+00  0.1676E+01
     -0.395  0.5858E-01  0.1114E+00  0.1692E+01
     -0.306  0.5338E-01  0.1037E+00  0.1690E+01
     -0.217  0.4113E-01  0.9159E-01  0.1648E+01
     -0.127  0.2435E-01  0.7164E-01  0.1503E+01
     -0.038  0.1586E-01  0.6709E-01  0.1448E+01
      0.051  0.1753E-01  0.6368E-01  0.1425E+01
      0.140  0.2250E-01  0.6524E-01  0.1465E+01
      0.230  0.2779E-01  0.6294E-01  0.1443E+01
      0.319  0.3047E-01  0.6120E-01  0.1499E+01
      0.408  0.2404E-01  0.5094E-01  0.1430E+01
      0.497  0.2560E-01  0.5312E-01  0.1291E+01
      0.587  0.3179E-01  0.6684E-01  0.1329E+01
      0.676  0.3934E-01  0.6894E-01  0.1464E+01
      0.765  0.4048E-01  0.6239E-01  0.1375E+01
      0.854  0.4049E-01  0.6622E-01  0.1373E+01
      0.944  0.3214E-01  0.6604E-01  0.1239E+01
      1.033  0.2674E-01  0.5497E-01  0.9526E+00
      1.122  0.2164E-01  0.4758E-01  0.8153E+00
      1.211  0.1754E-01  0.5545E-01  0.7155E+00
      1.301  0.1951E-01  0.5723E-01  0.5561E+00
      1.390  0.1890E-01  0.5268E-01  0.4636E+00
      1.479  0.1359E-01  0.4573E-01  0.4624E+00
      1.568  0.1364E-01  0.4152E-01  0.4448E+00
      1.658  0.1887E-01  0.5276E-01  0.3852E+00
      1.747  0.3029E-01  0.6075E-01  0.4376E+00
      1.836  0.2859E-01  0.6371E-01  0.4479E+00
      1.925  0.1917E-01  0.7151E-01  0.5169E+00
      2.014  0.1804E-01  0.6501E-01  0.4818E+00
      2.104  0.1882E-01  0.6774E-01  0.4467E+00
      2.193  0.1532E-01  0.7000E-01  0.3432E+00
      2.282  0.1129E-01  0.6787E-01  0.1818E+00
      2.371  0.2161E-01  0.9953E-01  0.2023E+00
      2.461  0.3031E-01  0.9802E-01  0.2574E+00
      2.550  0.2499E-01  0.7910E-01  0.2432E+00
      2.639  0.2390E-01  0.7519E-01  0.2632E+00
      2.728  0.2556E-01  0.1143E+00  0.2861E+00
      2.818  0.3317E-01  0.1310E+00  0.3827E+00
      2.907  0.1499E-01  0.8591E-01  0.2781E+00
      2.996  0.3292E-02  0.5072E-01  0.1151E+00
      3.085  0.1180E-01  0.7405E-01  0.1590E+00
      3.175  0.3273E-01  0.1018E+00  0.2363E+00
      3.264  0.3481E-01  0.7234E-01  0.1975E+00
      3.353  0.2109E-01  0.4852E-01  0.1511E+00
      3.442  0.1344E-01  0.9155E-01  0.1816E+00
      3.532  0.1264E-01  0.1046E+00  0.2088E+00
      3.621  0.1278E-01  0.6871E-01  0.1389E+00
      3.710  0.1463E-01  0.6855E-01  0.1059E+00
      3.799  0.2027E-01  0.8723E-01  0.1579E+00
      3.889  0.3165E-01  0.1270E+00  0.2750E+00
      3.978  0.2605E-01  0.1111E+00  0.2097E+00
      4.067  0.2933E-01  0.1019E+00  0.2281E+00
      4.156  0.3050E-01  0.1029E+00  0.2569E+00
      4.245  0.3269E-01  0.7604E-01  0.1690E+00
      4.335  0.3127E-01  0.3996E-01  0.1205E+00
      4.424  0.3333E-01  0.3850E-01  0.1360E+00
      4.513  0.2697E-01  0.5216E-01  0.1582E+00
      4.602  0.2050E-01  0.8056E-01  0.1987E+00
      4.692  0.1712E-01  0.1028E+00  0.1770E+00
      4.781  0.1300E-01  0.8896E-01  0.1085E+00
      4.870  0.1645E-01  0.6735E-01  0.9855E-01
      4.959  0.1902E-01  0.7949E-01  0.1284E+00
      5.049  0.1917E-01  0.5742E-01  0.8779E-01
      5.138  0.2055E-01  0.7509E-01  0.1038E+00
      5.227  0.2482E-01  0.8091E-01  0.1077E+00
      5.316  0.1841E-01  0.7425E-01  0.9459E-01
      5.406  0.1529E-01  0.6693E-01  0.8769E-01
      5.495  0.1772E-01  0.6331E-01  0.7181E-01
      5.584  0.2744E-01  0.9837E-01  0.1267E+00
      5.673  0.3265E-01  0.8712E-01  0.1252E+00
      5.763  0.2759E-01  0.7543E-01  0.8546E-01
      5.852  0.2232E-01  0.6802E-01  0.8381E-01
      5.941  0.2804E-01  0.5276E-01  0.9105E-01
      6.030  0.2257E-01  0.4529E-01  0.8858E-01
      6.120  0.1214E-01  0.4063E-01  0.5181E-01
      6.209  0.1379E-01  0.3592E-01  0.4006E-01
      6.298  0.2105E-01  0.3089E-01  0.4944E-01
      6.387  0.1692E-01  0.3504E-01  0.4348E-01
      6.477  0.3129E-01  0.4824E-01  0.5463E-01
      6.566  0.4150E-01  0.9150E-01  0.6995E-01
      6.655  0.4515E-01  0.7792E-01  0.6936E-01
      6.744  0.4648E-01  0.6131E-01  0.6196E-01
      6.833  0.5575E-01  0.7685E-01  0.6924E-01
      6.923  0.6154E-01  0.5971E-01  0.7221E-01
      7.012  0.9772E-01  0.4369E-01  0.7835E-01
      7.101  0.1317E+00  0.5194E-01  0.9874E-01
      7.190  0.1161E+00  0.5681E-01  0.1342E+00
      7.280  0.1300E+00  0.6892E-01  0.1756E+00
      7.369  0.1723E+00  0.7290E-01  0.1908E+00
      7.458  0.1848E+00  0.8287E-01  0.1527E+00
      7.547  0.1617E+00  0.1057E+00  0.1574E+00
      7.637  0.1641E+00  0.9652E-01  0.1583E+00
      7.726  0.2524E+00  0.9795E-01  0.1445E+00
      7.815  0.2437E+00  0.9307E-01  0.1450E+00
      7.904  0.1285E+00  0.7776E-01  0.1196E+00
      7.994  0.9474E-01  0.8431E-01  0.9547E-01
      8.083  0.9705E-01  0.9715E-01  0.8810E-01
      8.172  0.9313E-01  0.9936E-01  0.1038E+00
      8.261  0.8108E-01  0.1128E+00  0.1027E+00
      8.351  0.7340E-01  0.1219E+00  0.8630E-01
      8.440  0.6683E-01  0.1054E+00  0.7784E-01
      8.529  0.6358E-01  0.1106E+00  0.8880E-01
      8.618  0.5468E-01  0.1095E+00  0.9309E-01
      8.708  0.7511E-01  0.1281E+00  0.1093E+00
      8.797  0.8362E-01  0.1522E+00  0.1214E+00
      8.886  0.5966E-01  0.1168E+00  0.8176E-01
      8.975  0.3950E-01  0.1003E+00  0.6731E-01
      9.064  0.4924E-01  0.1077E+00  0.6582E-01
      9.154  0.6264E-01  0.1105E+00  0.7880E-01
      9.243  0.4899E-01  0.1164E+00  0.8012E-01
      9.332  0.3636E-01  0.1131E+00  0.7487E-01
      9.421  0.2887E-01  0.1006E+00  0.6646E-01
      9.511  0.2944E-01  0.1008E+00  0.5892E-01
      9.600  0.3956E-01  0.1045E+00  0.6696E-01
      9.689  0.5399E-01  0.1107E+00  0.7362E-01
      9.778  0.7574E-01  0.1146E+00  0.6832E-01
      9.868  0.8185E-01  0.1116E+00  0.7445E-01
      9.957  0.7698E-01  0.1032E+00  0.8693E-01
     10.046  0.7533E-01  0.1229E+00  0.8401E-01
     10.135  0.9018E-01  0.1289E+00  0.7955E-01
     10.225  0.1039E+00  0.9945E-01  0.7758E-01
     10.314  0.8981E-01  0.1210E+00  0.9052E-01
     10.403  0.5845E-01  0.1196E+00  0.8385E-01
     10.492  0.6957E-01  0.8911E-01  0.7611E-01
     10.582  0.7044E-01  0.7368E-01  0.7626E-01
     10.671  0.9269E-01  0.1034E+00  0.8992E-01
     10.760  0.9008E-01  0.1163E+00  0.1100E+00
     10.849  0.6869E-01  0.1162E+00  0.1027E+00
     10.939  0.8468E-01  0.1216E+00  0.8512E-01
     11.028  0.8111E-01  0.1097E+00  0.8882E-01
     11.117  0.6195E-01  0.1063E+00  0.9100E-01
     11.206  0.7200E-01  0.1208E+00  0.8839E-01
     11.295  0.8504E-01  0.1301E+00  0.9811E-01
     11.385  0.5724E-01  0.1308E+00  0.1042E+00
     11.474  0.5942E-01  0.1282E+00  0.1009E+00
     11.563  0.7153E-01  0.1237E+00  0.9531E-01
     11.652  0.6155E-01  0.1402E+00  0.9135E-01
     11.742  0.4939E-01  0.1793E+00  0.1075E+00
     11.831  0.5276E-01  0.1792E+00  0.1192E+00
     11.920  0.5566E-01  0.1550E+00  0.9562E-01
     12.009  0.5785E-01  0.1286E+00  0.8591E-01
     12.099  0.6011E-01  0.1428E+00  0.9293E-01
     12.188  0.5820E-01  0.1626E+00  0.1016E+00
     12.277  0.5052E-01  0.1685E+00  0.1116E+00
     12.366  0.3719E-01  0.1627E+00  0.1082E+00
     12.456  0.3695E-01  0.1640E+00  0.1136E+00
     12.545  0.3842E-01  0.1411E+00  0.1182E+00
     12.634  0.5307E-01  0.1498E+00  0.1109E+00
     12.723  0.4553E-01  0.1565E+00  0.1170E+00
     12.813  0.3937E-01  0.1542E+00  0.1176E+00
     12.902  0.4150E-01  0.1617E+00  0.1180E+00
     12.991  0.4705E-01  0.1650E+00  0.1243E+00
     13.080  0.5097E-01  0.1543E+00  0.1276E+00
     13.170  0.4976E-01  0.1839E+00  0.1347E+00
     13.259  0.3934E-01  0.1931E+00  0.1203E+00
     13.348  0.2734E-01  0.1746E+00  0.1077E+00
     13.437  0.2364E-01  0.1713E+00  0.1127E+00
     13.527  0.2214E-01  0.1369E+00  0.9665E-01
     13.616  0.2787E-01  0.1300E+00  0.1021E+00
     13.705  0.3498E-01  0.1622E+00  0.1174E+00
     13.794  0.2895E-01  0.1868E+00  0.1150E+00
     13.883  0.2848E-01  0.1628E+00  0.1066E+00
     13.973  0.3076E-01  0.1545E+00  0.1167E+00
     14.062  0.2470E-01  0.1732E+00  0.1207E+00
     14.151  0.2801E-01  0.2007E+00  0.1300E+00
     14.240  0.2537E-01  0.1891E+00  0.1289E+00
     14.330  0.2348E-01  0.1693E+00  0.1156E+00
     14.419  0.2834E-01  0.1641E+00  0.1109E+00
     14.508  0.2528E-01  0.1381E+00  0.1032E+00
     14.597  0.1958E-01  0.1057E+00  0.8754E-01
     14.687  0.1488E-01  0.7339E-01  0.5695E-01
     14.776  0.5820E-02  0.2627E-01  0.2155E-01
     14.865 -0.3041E-04 -0.6969E-03 -0.2676E-03
     14.954 -0.1914E-03 -0.8487E-03 -0.7159E-03
     15.044 -0.9187E-05 -0.3658E-04 -0.3233E-04
     15.133 -0.7424E-07 -0.2762E-06 -0.2507E-06
     15.222 -0.1143E-09 -0.4074E-09 -0.3770E-09
     15.311 -0.3470E-13 -0.1207E-12 -0.1134E-12
     15.401 -0.1884E-17 -0.6339E-17 -0.6191E-17
     15.490  0.0000E+00  0.0000E+00  0.0000E+00
     15.579  0.0000E+00  0.0000E+00  0.0000E+00
     15.668  0.0000E+00  0.0000E+00  0.0000E+00
     15.758  0.0000E+00  0.0000E+00  0.0000E+00
     15.847  0.0000E+00  0.0000E+00  0.0000E+00
     15.936  0.0000E+00  0.0000E+00  0.0000E+00
     15.93600700    -10.83616830  301      0.36202880      1.00000000
    -10.836  0.0000E+00  0.0000E+00  0.0000E+00
    -10.747  0.0000E+00  0.0000E+00  0.0000E+00
    -10.658  0.0000E+00  0.0000E+00  0.0000E+00
    -10.568  0.0000E+00  0.0000E+00  0.0000E+00
    -10.479 -0.6269E-34 -0.8826E-35 -0.2913E-36
    -10.390 -0.1174E-27 -0.1652E-28 -0.5453E-30
    -10.301 -0.4409E-22 -0.6207E-23 -0.2048E-24
    -10.211 -0.3310E-17 -0.4660E-18 -0.1538E-19
    -10.122 -0.4747E-13 -0.6683E-14 -0.2206E-15
    -10.033 -0.1368E-09 -0.1927E-10 -0.6358E-12
     -9.944 -0.7506E-07 -0.1057E-07 -0.3488E-09
     -9.855 -0.7321E-05 -0.1031E-05 -0.3411E-07
     -9.765 -0.9706E-04 -0.1370E-04 -0.4730E-06
     -9.676  0.2195E-03  0.2935E-04  0.1253E-06
     -9.587  0.1856E-02  0.2580E-03  0.6781E-05
     -9.498  0.9361E-02  0.1384E-02  0.8121E-04
     -9.408  0.1208E-01  0.1795E-02  0.1094E-03
     -9.319  0.8415E-03  0.1213E-03  0.4971E-05
     -9.230  0.1112E-01  0.1768E-02  0.1860E-03
     -9.141  0.1591E-01  0.2594E-02  0.3081E-03
     -9.051  0.7766E-02  0.1333E-02  0.1960E-03
     -8.962  0.1227E-01  0.1826E-02  0.2190E-03
     -8.873  0.2657E-01  0.3215E-02  0.2130E-03
     -8.784  0.9575E-01  0.1210E-01  0.8509E-03
     -8.694  0.5549E-01  0.7268E-02  0.6147E-03
     -8.605  0.1393E-01  0.2275E-02  0.5265E-03
     -8.516  0.1651E-01  0.2442E-02  0.4401E-03
     -8.427  0.3747E-01  0.6611E-02  0.1957E-02
     -8.337  0.3709E-01  0.7663E-02  0.2922E-02
     -8.248  0.5337E-02  0.1565E-02  0.7872E-03
     -8.159 -0.4344E-02 -0.3560E-03 -0.1095E-04
     -8.070  0.2375E-01  0.3914E-02  0.1450E-02
     -7.980  0.9771E-01  0.1623E-01  0.7189E-02
     -7.891  0.8485E-01  0.1457E-01  0.7572E-02
     -7.802  0.6491E-01  0.7947E-02  0.5229E-02
     -7.713  0.8033E-01  0.5606E-02  0.4360E-02
     -7.624  0.5224E-01  0.5945E-02  0.5473E-02
     -7.534  0.1069E+00  0.1157E-01  0.7829E-02
     -7.445  0.1380E+00  0.1637E-01  0.1138E-01
     -7.356  0.8663E-01  0.1996E-01  0.1859E-01
     -7.267  0.7110E-01  0.2164E-01  0.2513E-01
     -7.177  0.6653E-01  0.1619E-01  0.2496E-01
     -7.088  0.6471E-01  0.1155E-01  0.2582E-01
     -6.999  0.1284E+00  0.2840E-01  0.3224E-01
     -6.910  0.9847E-01  0.2721E-01  0.3299E-01
     -6.820  0.9504E-01  0.2486E-01  0.4954E-01
     -6.731  0.8693E-01  0.3275E-01  0.8080E-01
     -6.642  0.9538E-01  0.3695E-01  0.1204E+00
     -6.553  0.1184E+00  0.4020E-01  0.1754E+00
     -6.463  0.1820E+00  0.3721E-01  0.1982E+00
     -6.374  0.3096E+00  0.5014E-01  0.2802E+00
     -6.285  0.3094E+00  0.5997E-01  0.3753E+00
     -6.196  0.2380E+00  0.5839E-01  0.3386E+00
     -6.106  0.1625E+00  0.5691E-01  0.3039E+00
     -6.017  0.1408E+00  0.6205E-01  0.3688E+00
     -5.928  0.1926E+00  0.6894E-01  0.4458E+00
     -5.839  0.1639E+00  0.7243E-01  0.5333E+00
     -5.749  0.1815E+00  0.7665E-01  0.6144E+00
     -5.660  0.2252E+00  0.6788E-01  0.6823E+00
     -5.571  0.2404E+00  0.6877E-01  0.6946E+00
     -5.482  0.2267E+00  0.7297E-01  0.8776E+00
     -5.392  0.1711E+00  0.6920E-01  0.1297E+01
     -5.303  0.1474E+00  0.6993E-01  0.1377E+01
     -5.214  0.1309E+00  0.5344E-01  0.1146E+01
     -5.125  0.9554E-01  0.4005E-01  0.8466E+00
     -5.036  0.5905E-01  0.3994E-01  0.7636E+00
     -4.946  0.5752E-01  0.4778E-01  0.6522E+00
     -4.857  0.5881E-01  0.5218E-01  0.5326E+00
     -4.768  0.4419E-01  0.5944E-01  0.5153E+00
     -4.679  0.4192E-01  0.6618E-01  0.5955E+00
     -4.589  0.4036E-01  0.6743E-01  0.6635E+00
     -4.500  0.3273E-01  0.5687E-01  0.6889E+00
     -4.411  0.2561E-01  0.6265E-01  0.7835E+00
     -4.322  0.2017E-01  0.6330E-01  0.7667E+00
     -4.232  0.1921E-01  0.7061E-01  0.7096E+00
     -4.143  0.2613E-01  0.8514E-01  0.7131E+00
     -4.054  0.3108E-01  0.6869E-01  0.6172E+00
     -3.965  0.3805E-01  0.5943E-01  0.5736E+00
     -3.875  0.3796E-01  0.5690E-01  0.6568E+00
     -3.786  0.2894E-01  0.4787E-01  0.6737E+00
     -3.697  0.2670E-01  0.4433E-01  0.7446E+00
     -3.608  0.3093E-01  0.5116E-01  0.8921E+00
     -3.518  0.3626E-01  0.5481E-01  0.1025E+01
     -3.429  0.3514E-01  0.4783E-01  0.1096E+01
     -3.340  0.2942E-01  0.4208E-01  0.9955E+00
     -3.251  0.2908E-01  0.4098E-01  0.1031E+01
     -3.161  0.2550E-01  0.4752E-01  0.1184E+01
     -3.072  0.2987E-01  0.5686E-01  0.1139E+01
     -2.983  0.3879E-01  0.6574E-01  0.1295E+01
     -2.894  0.3605E-01  0.7148E-01  0.1603E+01