  64  64   1   0
  0.4243868E+02  0.1084943E-08  0.1084943E-08  0.2664389E-08  0.1000000E-15
  1.000000000000000E-004
  CAR 
 unknown system                          
      4.65774830    -12.49707478  301     -0.10958147      1.00000000
    -12.497  0.0000E+00  0.0000E+00
    -12.440  0.0000E+00  0.0000E+00
    -12.383  0.0000E+00  0.0000E+00
    -12.326  0.0000E+00  0.0000E+00
    -12.268  0.0000E+00  0.0000E+00
    -12.211  0.0000E+00  0.0000E+00
    -12.154 -0.3983E-31 -0.2278E-32
    -12.097 -0.4005E-29 -0.2313E-30
    -12.040 -0.3443E-27 -0.1992E-28
    -11.982 -0.2509E-25 -0.1454E-26
    -11.925 -0.1550E-23 -0.9006E-25
    -11.868 -0.8111E-22 -0.4728E-23
    -11.811 -0.3597E-20 -0.2104E-21
    -11.754 -0.1351E-18 -0.7937E-20
    -11.697 -0.4298E-17 -0.2537E-18
    -11.639 -0.1121E-15 -0.6664E-17
    -11.582 -0.2549E-14 -0.1524E-15
    -11.525 -0.4893E-13 -0.2951E-14
    -11.468 -0.7937E-12 -0.4834E-13
    -11.411 -0.1087E-10 -0.6698E-12
    -11.353 -0.1255E-09 -0.7848E-11
    -11.296 -0.1222E-08 -0.7772E-10
    -11.239 -0.1001E-07 -0.6501E-09
    -11.182 -0.6895E-07 -0.4593E-08
    -11.125 -0.3986E-06 -0.2739E-07
    -11.068 -0.1932E-05 -0.1379E-06
    -11.010 -0.7834E-05 -0.5858E-06
    -10.953 -0.2653E-04 -0.2103E-05
    -10.896 -0.7478E-04 -0.6379E-05
    -10.839 -0.1743E-03 -0.1635E-04
    -10.782 -0.3300E-03 -0.3522E-04
    -10.724 -0.4785E-03 -0.6258E-04
    -10.667 -0.4095E-03 -0.8600E-04
    -10.610  0.3024E-03 -0.6870E-04
    -10.553  0.2237E-02  0.5922E-04
    -10.496  0.5751E-02  0.3881E-03
    -10.438  0.1032E-01  0.9784E-03
    -10.381  0.1426E-01  0.1794E-02
    -10.324  0.1561E-01  0.2686E-02
    -10.267  0.1401E-01  0.3487E-02
    -10.210  0.1154E-01  0.4147E-02
    -10.153  0.1126E-01  0.4791E-02
    -10.095  0.1453E-01  0.5622E-02
    -10.038  0.1979E-01  0.6753E-02
     -9.981  0.2382E-01  0.8115E-02
     -9.924  0.2397E-01  0.9486E-02
     -9.867  0.1963E-01  0.1061E-01
     -9.809  0.1246E-01  0.1132E-01
     -9.752  0.5857E-02  0.1166E-01
     -9.695  0.3534E-02  0.1186E-01
     -9.638  0.7581E-02  0.1229E-01
     -9.581  0.1668E-01  0.1325E-01
     -9.524  0.2618E-01  0.1474E-01
     -9.466  0.3104E-01  0.1652E-01
     -9.409  0.2965E-01  0.1821E-01
     -9.352  0.2459E-01  0.1962E-01
     -9.295  0.1942E-01  0.2073E-01
     -9.238  0.1531E-01  0.2160E-01
     -9.180  0.1141E-01  0.2226E-01
     -9.123  0.7887E-02  0.2271E-01
     -9.066  0.7384E-02  0.2313E-01
     -9.009  0.1319E-01  0.2388E-01
     -8.952  0.2581E-01  0.2536E-01
     -8.895  0.4126E-01  0.2772E-01
     -8.837  0.5280E-01  0.3074E-01
     -8.780  0.5565E-01  0.3392E-01
     -8.723  0.5076E-01  0.3682E-01
     -8.666  0.4384E-01  0.3933E-01
     -8.609  0.4005E-01  0.4162E-01
     -8.551  0.3932E-01  0.4387E-01
     -8.494  0.3705E-01  0.4599E-01
     -8.437  0.2947E-01  0.4767E-01
     -8.380  0.1860E-01  0.4874E-01
     -8.323  0.1235E-01  0.4944E-01
     -8.266  0.1931E-01  0.5055E-01
     -8.208  0.4139E-01  0.5291E-01
     -8.151  0.7015E-01  0.5692E-01
     -8.094  0.9102E-01  0.6213E-01
     -8.037  0.9348E-01  0.6747E-01
     -7.980  0.7845E-01  0.7196E-01
     -7.922  0.5661E-01  0.7520E-01
     -7.865  0.4121E-01  0.7755E-01
     -7.808  0.4281E-01  0.8000E-01
     -7.751  0.6719E-01  0.8384E-01
     -7.694  0.1135E+00  0.9033E-01
     -7.637  0.1724E+00  0.1002E+00
     -7.579  0.2272E+00  0.1132E+00
     -7.522  0.2612E+00  0.1281E+00
     -7.465  0.2673E+00  0.1434E+00
     -7.408  0.2540E+00  0.1579E+00
     -7.351  0.2394E+00  0.1716E+00
     -7.293  0.2361E+00  0.1851E+00
     -7.236  0.2408E+00  0.1989E+00
     -7.179  0.2401E+00  0.2126E+00
     -7.122  0.2282E+00  0.2257E+00
     -7.065  0.2152E+00  0.2380E+00
     -7.008  0.2179E+00  0.2504E+00
     -6.950  0.2424E+00  0.2643E+00
     -6.893  0.2785E+00  0.2802E+00
     -6.836  0.3089E+00  0.2979E+00
     -6.779  0.3234E+00  0.3164E+00
     -6.722  0.3260E+00  0.3350E+00
     -6.664  0.3301E+00  0.3539E+00
     -6.607  0.3449E+00  0.3736E+00
     -6.550  0.3652E+00  0.3945E+00
     -6.493  0.3778E+00  0.4161E+00
     -6.436  0.3783E+00  0.4377E+00
     -6.379  0.3779E+00  0.4594E+00
     -6.321  0.3911E+00  0.4817E+00
     -6.264  0.4159E+00  0.5055E+00
     -6.207  0.4317E+00  0.5302E+00
     -6.150  0.4186E+00  0.5541E+00
     -6.093  0.3784E+00  0.5758E+00
     -6.035  0.3333E+00  0.5948E+00
     -5.978  0.3033E+00  0.6122E+00
     -5.921  0.2879E+00  0.6286E+00
     -5.864  0.2707E+00  0.6441E+00
     -5.807  0.2428E+00  0.6580E+00
     -5.750  0.2153E+00  0.6703E+00
     -5.692  0.2095E+00  0.6823E+00
     -5.635  0.2374E+00  0.6959E+00
     -5.578  0.2905E+00  0.7125E+00
     -5.521  0.3453E+00  0.7322E+00
     -5.464  0.3771E+00  0.7538E+00
     -5.406  0.3746E+00  0.7752E+00
     -5.349  0.3449E+00  0.7949E+00
     -5.292  0.3088E+00  0.8126E+00
     -5.235  0.2874E+00  0.8290E+00
     -5.178  0.2899E+00  0.8456E+00
     -5.121  0.3106E+00  0.8634E+00
     -5.063  0.3361E+00  0.8826E+00
     -5.006  0.3549E+00  0.9029E+00
     -4.949  0.3620E+00  0.9236E+00
     -4.892  0.3586E+00  0.9441E+00
     -4.835  0.3497E+00  0.9641E+00
     -4.777  0.3395E+00  0.9835E+00
     -4.720  0.3258E+00  0.1002E+01
     -4.663  0.3027E+00  0.1019E+01
     -4.606  0.2715E+00  0.1035E+01
     -4.549  0.2460E+00  0.1049E+01
     -4.491  0.2418E+00  0.1063E+01
     -4.434  0.2615E+00  0.1078E+01
     -4.377  0.2934E+00  0.1095E+01
     -4.320  0.3253E+00  0.1113E+01
     -4.263  0.3546E+00  0.1133E+01
     -4.206  0.3862E+00  0.1156E+01
     -4.148  0.4234E+00  0.1180E+01
     -4.091  0.4630E+00  0.1206E+01
     -4.034  0.4933E+00  0.1234E+01
     -3.977  0.4998E+00  0.1263E+01
     -3.920  0.4778E+00  0.1290E+01
     -3.862  0.4411E+00  0.1316E+01
     -3.805  0.4147E+00  0.1339E+01
     -3.748  0.4176E+00  0.1363E+01
     -3.691  0.4504E+00  0.1389E+01
     -3.634  0.4987E+00  0.1417E+01
     -3.577  0.5444E+00  0.1449E+01
     -3.519  0.5757E+00  0.1481E+01
     -3.462  0.5900E+00  0.1515E+01
     -3.405  0.5898E+00  0.1549E+01
     -3.348  0.5794E+00  0.1582E+01
     -3.291  0.5659E+00  0.1614E+01
     -3.233  0.5621E+00  0.1647E+01
     -3.176  0.5799E+00  0.1680E+01
     -3.119  0.6150E+00  0.1715E+01
     -3.062  0.6418E+00  0.1752E+01
     -3.005  0.6296E+00  0.1788E+01
     -2.948  0.5682E+00  0.1820E+01
     -2.890  0.4783E+00  0.1847E+01
     -2.833  0.3956E+00  0.1870E+01
     -2.776  0.3439E+00  0.1890E+01
     -2.719  0.3207E+00  0.1908E+01
     -2.662  0.3071E+00  0.1926E+01
     -2.604  0.2877E+00  0.1942E+01
     -2.547  0.2631E+00  0.1957E+01
     -2.490  0.2464E+00  0.1971E+01
     -2.433  0.2513E+00  0.1986E+01
     -2.376  0.2852E+00  0.2002E+01
     -2.319  0.3482E+00  0.2022E+01
     -2.261  0.4321E+00  0.2047E+01
     -2.204  0.5190E+00  0.2076E+01
     -2.147  0.5850E+00  0.2110E+01
     -2.090  0.6078E+00  0.2144E+01
     -2.033  0.5773E+00  0.2177E+01
     -1.975  0.5010E+00  0.2206E+01
     -1.918  0.4020E+00  0.2229E+01
     -1.861  0.3081E+00  0.2247E+01
     -1.804  0.2392E+00  0.2260E+01
     -1.747  0.2031E+00  0.2272E+01
     -1.690  0.1980E+00  0.2283E+01
     -1.632  0.2172E+00  0.2296E+01
     -1.575  0.2521E+00  0.2310E+01
     -1.518  0.2950E+00  0.2327E+01
     -1.461  0.3398E+00  0.2346E+01
     -1.404  0.3804E+00  0.2368E+01
     -1.346  0.4112E+00  0.2392E+01
     -1.289  0.4298E+00  0.2416E+01
     -1.232  0.4373E+00  0.2441E+01
     -1.175  0.4359E+00  0.2466E+01
     -1.118  0.4277E+00  0.2491E+01
     -1.061  0.4179E+00  0.2515E+01
     -1.003  0.4163E+00  0.2538E+01
     -0.946  0.4317E+00  0.2563E+01
     -0.889  0.4635E+00  0.2590E+01
     -0.832  0.5007E+00  0.2618E+01
     -0.775  0.5263E+00  0.2648E+01
     -0.717  0.5240E+00  0.2678E+01
     -0.660  0.4853E+00  0.2706E+01
     -0.603  0.4145E+00  0.2730E+01
     -0.546  0.3297E+00  0.2749E+01
     -0.489  0.2574E+00  0.2763E+01
     -0.432  0.2218E+00  0.2776E+01
     -0.374  0.2317E+00  0.2789E+01
     -0.317  0.2754E+00  0.2805E+01
     -0.260  0.3267E+00  0.2824E+01
     -0.203  0.3626E+00  0.2844E+01
     -0.146  0.3791E+00  0.2866E+01
     -0.088  0.3917E+00  0.2888E+01
     -0.031  0.4186E+00  0.2912E+01
      0.026  0.4587E+00  0.2939E+01
      0.083  0.4889E+00  0.2967E+01
      0.140  0.4846E+00  0.2994E+01
      0.197  0.4434E+00  0.3020E+01
      0.255  0.3880E+00  0.3042E+01
      0.312  0.3491E+00  0.3062E+01
      0.369  0.3465E+00  0.3082E+01
      0.426  0.3834E+00  0.3103E+01
      0.483  0.4486E+00  0.3129E+01
      0.541  0.5205E+00  0.3159E+01
      0.598  0.5734E+00  0.3192E+01
      0.655  0.5863E+00  0.3225E+01
      0.712  0.5538E+00  0.3257E+01
      0.769  0.4896E+00  0.3285E+01
      0.827  0.4187E+00  0.3309E+01
      0.884  0.3628E+00  0.3330E+01
      0.941  0.3288E+00  0.3348E+01
      0.998  0.3086E+00  0.3366E+01
      1.055  0.2870E+00  0.3382E+01
      1.112  0.2530E+00  0.3397E+01
      1.170  0.2067E+00  0.3409E+01
      1.227  0.1585E+00  0.3418E+01
      1.284  0.1190E+00  0.3425E+01
      1.341  0.9156E-01  0.3430E+01
      1.398  0.7462E-01  0.3434E+01
      1.456  0.6820E-01  0.3438E+01
      1.513  0.7443E-01  0.3442E+01
      1.570  0.9077E-01  0.3447E+01
      1.627  0.1066E+00  0.3454E+01
      1.684  0.1099E+00  0.3460E+01
      1.741  0.9692E-01  0.3465E+01
      1.799  0.7416E-01  0.3470E+01
      1.856  0.5193E-01  0.3473E+01
      1.913  0.3633E-01  0.3475E+01
      1.970  0.2717E-01  0.3476E+01
      2.027  0.2098E-01  0.3477E+01
      2.085  0.1494E-01  0.3478E+01
      2.142  0.8644E-02  0.3479E+01
      2.199  0.3284E-02  0.3479E+01
      2.256 -0.5286E-04  0.3479E+01
      2.313 -0.1356E-02  0.3479E+01
      2.370 -0.1342E-02  0.3479E+01
      2.428 -0.6277E-03  0.3479E+01
      2.485  0.6143E-03  0.3479E+01
      2.542  0.2324E-02  0.3479E+01
      2.599  0.4084E-02  0.3479E+01
      2.656  0.5124E-02  0.3479E+01
      2.714  0.4882E-02  0.3480E+01
      2.771  0.3522E-02  0.3480E+01
      2.828  0.1811E-02  0.3480E+01
      2.885  0.4994E-03  0.3480E+01
      2.942 -0.1397E-03  0.3480E+01
      2.999 -0.2743E-03  0.3480E+01
      3.057 -0.1964E-03  0.3480E+01
      3.114 -0.9688E-04  0.3480E+01
      3.171 -0.3678E-04  0.3480E+01
      3.228 -0.1119E-04  0.3480E+01
      3.285 -0.2784E-05  0.3480E+01
      3.343 -0.5725E-06  0.3480E+01
      3.400 -0.9801E-07  0.3480E+01
      3.457 -0.1404E-07  0.3480E+01
      3.514 -0.1687E-08  0.3480E+01
      3.571 -0.1705E-09  0.3480E+01
      3.628 -0.1452E-10  0.3480E+01
      3.686 -0.1043E-11  0.3480E+01
      3.743 -0.6330E-13  0.3480E+01
      3.800 -0.3245E-14  0.3480E+01
      3.857 -0.1432E-15  0.3480E+01
      3.914 -0.4854E-17  0.3480E+01
      3.972  0.0000E+00  0.3480E+01
      4.029  0.0000E+00  0.3480E+01
      4.086  0.0000E+00  0.3480E+01
      4.143  0.0000E+00  0.3480E+01
      4.200  0.0000E+00  0.3480E+01
      4.257  0.0000E+00  0.3480E+01
      4.315  0.0000E+00  0.3480E+01
      4.372  0.0000E+00  0.3480E+01
      4.429  0.0000E+00  0.3480E+01
      4.486  0.0000E+00  0.3480E+01
      4.543  0.0000E+00  0.3480E+01
      4.601  0.0000E+00  0.3480E+01
      4.658  0.0000E+00  0.3480E+01
      4.65774830    -12.49707478  301     -0.10958147      1.00000000
    -12.497  0.0000E+00  0.0000E+00  0.0000E+00
    -12.440  0.0000E+00  0.0000E+00  0.0000E+00
    -12.383  0.0000E+00  0.0000E+00  0.0000E+00
    -12.326  0.0000E+00  0.0000E+00  0.0000E+00
    -12.268  0.0000E+00  0.0000E+00  0.0000E+00
    -12.211  0.0000E+00  0.0000E+00  0.0000E+00
    -12.154 -0.3983E-31 -0.5118E-32 -0.1525E-34
    -12.097 -0.4004E-29 -0.5146E-30 -0.1533E-32
    -12.040 -0.3442E-27 -0.4423E-28 -0.1318E-30
    -11.982 -0.2508E-25 -0.3224E-26 -0.9609E-29
    -11.925 -0.1549E-23 -0.1991E-24 -0.5937E-27
    -11.868 -0.8110E-22 -0.1042E-22 -0.3110E-25
    -11.811 -0.3597E-20 -0.4622E-21 -0.1380E-23
    -11.754 -0.1351E-18 -0.1736E-19 -0.5192E-22
    -11.697 -0.4298E-17 -0.5523E-18 -0.1655E-20
    -11.639 -0.1121E-15 -0.1441E-16 -0.4333E-19
    -11.582 -0.2548E-14 -0.3275E-15 -0.9907E-18
    -11.525 -0.4893E-13 -0.6289E-14 -0.1916E-16
    -11.468 -0.7936E-12 -0.1020E-12 -0.3150E-15
    -11.411 -0.1087E-10 -0.1397E-11 -0.4400E-14
    -11.353 -0.1255E-09 -0.1614E-10 -0.5239E-13
    -11.296 -0.1222E-08 -0.1571E-09 -0.5341E-12
    -11.239 -0.1001E-07 -0.1288E-08 -0.4688E-11
    -11.182 -0.6891E-07 -0.8879E-08 -0.3570E-10
    -11.125 -0.3984E-06 -0.5140E-07 -0.2377E-09
    -11.068 -0.1930E-05 -0.2496E-06 -0.1393E-08
    -11.010 -0.7822E-05 -0.1016E-05 -0.7194E-08
    -10.953 -0.2647E-04 -0.3457E-05 -0.3262E-07
    -10.896 -0.7452E-04 -0.9822E-05 -0.1283E-06
    -10.839 -0.1734E-03 -0.2318E-04 -0.4304E-06
    -10.782 -0.3272E-03 -0.4470E-04 -0.1201E-05
    -10.724 -0.4719E-03 -0.6681E-04 -0.2686E-05
    -10.667 -0.3982E-03 -0.6182E-04 -0.4484E-05
    -10.610  0.3142E-03  0.2927E-04 -0.4430E-05
    -10.553  0.2234E-02  0.2898E-03  0.1754E-05
    -10.496  0.5709E-02  0.7737E-03  0.1785E-04
    -10.438  0.1022E-01  0.1410E-02  0.4168E-04
    -10.381  0.1410E-01  0.1961E-02  0.6276E-04
    -10.324  0.1543E-01  0.2153E-02  0.7058E-04
    -10.267  0.1383E-01  0.1947E-02  0.7036E-04
    -10.210  0.1132E-01  0.1656E-02  0.8918E-04
    -10.153  0.1089E-01  0.1733E-02  0.1594E-03
    -10.095  0.1387E-01  0.2364E-02  0.2895E-03
    -10.038  0.1878E-01  0.3294E-02  0.4476E-03
     -9.981  0.2255E-01  0.4004E-02  0.5715E-03
     -9.924  0.2265E-01  0.4056E-02  0.5969E-03
     -9.867  0.1853E-01  0.3330E-02  0.4933E-03
     -9.809  0.1179E-01  0.2104E-02  0.2982E-03
     -9.752  0.5556E-02  0.9816E-03  0.1289E-03
     -9.695  0.3236E-02  0.6589E-03  0.1470E-03
     -9.638  0.6699E-02  0.1546E-02  0.4620E-03
     -9.581  0.1473E-01  0.3397E-02  0.1018E-02
     -9.524  0.2315E-01  0.5310E-02  0.1579E-02
     -9.466  0.2739E-01  0.6298E-02  0.1887E-02
     -9.409  0.2594E-01  0.6051E-02  0.1877E-02
     -9.352  0.2109E-01  0.5095E-02  0.1702E-02
     -9.295  0.1609E-01  0.4118E-02  0.1521E-02
     -9.238  0.1231E-01  0.3302E-02  0.1319E-02
     -9.180  0.9522E-02  0.2431E-02  0.9951E-03
     -9.123  0.8548E-02  0.1534E-02  0.6155E-03
     -9.066  0.1218E-01  0.1212E-02  0.5222E-03
     -9.009  0.2282E-01  0.2250E-02  0.1150E-02
     -8.952  0.3902E-01  0.4885E-02  0.2675E-02
     -8.895  0.5464E-01  0.8355E-02  0.4731E-02
     -8.837  0.6278E-01  0.1119E-01  0.6486E-02
     -8.780  0.6151E-01  0.1219E-01  0.7161E-02
     -8.723  0.5587E-01  0.1138E-01  0.6665E-02
     -8.666  0.5334E-01  0.9923E-02  0.5686E-02
     -8.609  0.5690E-01  0.9050E-02  0.5026E-02
     -8.551  0.6222E-01  0.8854E-02  0.4804E-02
     -8.494  0.6157E-01  0.8334E-02  0.4398E-02
     -8.437  0.5059E-01  0.6604E-02  0.3262E-02
     -8.380  0.3293E-01  0.4147E-02  0.1826E-02
     -8.323  0.1920E-01  0.2936E-02  0.1586E-02
     -8.266  0.2070E-01  0.5152E-02  0.4129E-02
     -8.208  0.4097E-01  0.1129E-01  0.9673E-02
     -8.151  0.7141E-01  0.1912E-01  0.1629E-01
     -8.094  0.9580E-01  0.2478E-01  0.2085E-01
     -8.037  0.1020E+00  0.2549E-01  0.2131E-01
     -7.980  0.9080E-01  0.2145E-01  0.1854E-01
     -7.922  0.7332E-01  0.1519E-01  0.1621E-01
     -7.865  0.6149E-01  0.9568E-02  0.1912E-01
     -7.808  0.6151E-01  0.6684E-02  0.3107E-01
     -7.751  0.7406E-01  0.8027E-02  0.5278E-01
     -7.694  0.9698E-01  0.1447E-01  0.8112E-01
     -7.637  0.1262E+00  0.2529E-01  0.1105E+00
     -7.579  0.1556E+00  0.3733E-01  0.1355E+00
     -7.522  0.1780E+00  0.4602E-01  0.1530E+00
     -7.465  0.1881E+00  0.4825E-01  0.1626E+00
     -7.408  0.1856E+00  0.4488E-01  0.1676E+00
     -7.351  0.1758E+00  0.4022E-01  0.1723E+00
     -7.293  0.1649E+00  0.3848E-01  0.1782E+00
     -7.236  0.1554E+00  0.4054E-01  0.1806E+00
     -7.179  0.1462E+00  0.4403E-01  0.1736E+00
     -7.122  0.1369E+00  0.4633E-01  0.1588E+00
     -7.065  0.1309E+00  0.4714E-01  0.1483E+00
     -7.008  0.1328E+00  0.4815E-01  0.1553E+00
     -6.950  0.1433E+00  0.5081E-01  0.1813E+00
     -6.893  0.1566E+00  0.5478E-01  0.2147E+00
     -6.836  0.1641E+00  0.5832E-01  0.2428E+00
     -6.779  0.1627E+00  0.6006E-01  0.2660E+00
     -6.722  0.1595E+00  0.6020E-01  0.3018E+00
     -6.664  0.1665E+00  0.6023E-01  0.3711E+00
     -6.607  0.1884E+00  0.6121E-01  0.4745E+00
     -6.550  0.2159E+00  0.6249E-01  0.5828E+00
     -6.493  0.2337E+00  0.6257E-01  0.6559E+00
     -6.436  0.2355E+00  0.6146E-01  0.6792E+00
     -6.379  0.2299E+00  0.6163E-01  0.6776E+00
     -6.321  0.2305E+00  0.6572E-01  0.6886E+00
     -6.264  0.2410E+00  0.7311E-01  0.7185E+00
     -6.207  0.2505E+00  0.7915E-01  0.7332E+00
     -6.150  0.2444E+00  0.7892E-01  0.6972E+00
     -6.093  0.2184E+00  0.7190E-01  0.6181E+00
     -6.035  0.1821E+00  0.6248E-01  0.5428E+00
     -5.978  0.1484E+00  0.5548E-01  0.5068E+00
     -5.921  0.1229E+00  0.5161E-01  0.5004E+00
     -5.864  0.1024E+00  0.4784E-01  0.4895E+00
     -5.807  0.8197E-01  0.4186E-01  0.4610E+00
     -5.750  0.6151E-01  0.3551E-01  0.4402E+00
     -5.692  0.4557E-01  0.3347E-01  0.4668E+00
     -5.635  0.3893E-01  0.3908E-01  0.5607E+00
     -5.578  0.4219E-01  0.5122E-01  0.7039E+00
     -5.521  0.5057E-01  0.6463E-01  0.8461E+00
     -5.464  0.5669E-01  0.7319E-01  0.9311E+00
     -5.406  0.5538E-01  0.7359E-01  0.9309E+00
     -5.349  0.4681E-01  0.6708E-01  0.8640E+00
     -5.292  0.3558E-01  0.5819E-01  0.7809E+00
     -5.235  0.2695E-01  0.5185E-01  0.7289E+00
     -5.178  0.2356E-01  0.5084E-01  0.7239E+00
     -5.121  0.2493E-01  0.5488E-01  0.7498E+00
     -5.063  0.2907E-01  0.6118E-01  0.7770E+00
     -5.006  0.3411E-01  0.6601E-01  0.7831E+00
     -4.949  0.3862E-01  0.6652E-01  0.7619E+00
     -4.892  0.4131E-01  0.6212E-01  0.7220E+00
     -4.835  0.4127E-01  0.5456E-01  0.6789E+00
     -4.777  0.3836E-01  0.4628E-01  0.6423E+00
     -4.720  0.3307E-01  0.3844E-01  0.6064E+00
     -4.663  0.2621E-01  0.3087E-01  0.5621E+00
     -4.606  0.1917E-01  0.2379E-01  0.5194E+00
     -4.549  0.1397E-01  0.1893E-01  0.5112E+00
     -4.491  0.1224E-01  0.1814E-01  0.5617E+00
     -4.434  0.1400E-01  0.2148E-01  0.6553E+00
     -4.377  0.1786E-01  0.2699E-01  0.7481E+00
     -4.320  0.2252E-01  0.3241E-01  0.8088E+00
     -4.263  0.2785E-01  0.3698E-01  0.8446E+00
     -4.206  0.3464E-01  0.4169E-01  0.8862E+00
     -4.148  0.4362E-01  0.4838E-01  0.9573E+00
     -4.091  0.5440E-01  0.5786E-01  0.1055E+01
     -4.034  0.6482E-01  0.6833E-01  0.1148E+01
     -3.977  0.7116E-01  0.7560E-01  0.1194E+01
     -3.920  0.7018E-01  0.7599E-01  0.1172E+01
     -3.862  0.6170E-01  0.6977E-01  0.1104E+01
     -3.805  0.4933E-01  0.6151E-01  0.1047E+01
     -3.748  0.3842E-01  0.5693E-01  0.1050E+01
     -3.691  0.3318E-01  0.5908E-01  0.1125E+01
     -3.634  0.3488E-01  0.6695E-01  0.1247E+01
     -3.577  0.4205E-01  0.7705E-01  0.1378E+01
     -3.519  0.5191E-01  0.8647E-01  0.1491E+01
     -3.462  0.6174E-01  0.9447E-01  0.1573E+01
     -3.405  0.6944E-01  0.1015E+00  0.1624E+01
     -3.348  0.7349E-01  0.1072E+00  0.1648E+01
     -3.291  0.7331E-01  0.1095E+00  0.1661E+01
     -3.233  0.7007E-01  0.1069E+00  0.1695E+01
     -3.176  0.6646E-01  0.1004E+00  0.1776E+01
     -3.119  0.6471E-01  0.9342E-01  0.1894E+01
     -3.062  0.6469E-01  0.8954E-01  0.1988E+01
     -3.005  0.6428E-01  0.9035E-01  0.1979E+01
     -2.948  0.6181E-01  0.9444E-01  0.1834E+01
     -2.890  0.5787E-01  0.9880E-01  0.1596E+01
     -2.833  0.5452E-01  0.1015E+00  0.1357E+01
     -2.776  0.5285E-01  0.1029E+00  0.1188E+01
     -2.719  0.5173E-01  0.1045E+00  0.1095E+01
     -2.662  0.4949E-01  0.1073E+00  0.1033E+01
     -2.604  0.4640E-01  0.1116E+00  0.9586E+00
     -2.547  0.4496E-01  0.1183E+00  0.8687E+00
     -2.490  0.4755E-01  0.1276E+00  0.7931E+00
     -2.433  0.5410E-01  0.1374E+00  0.7675E+00
     -2.376  0.6176E-01  0.1444E+00  0.8173E+00
     -2.319  0.6648E-01  0.1462E+00  0.9526E+00
     -2.261  0.6518E-01  0.1430E+00  0.1162E+01
     -2.204  0.5760E-01  0.1366E+00  0.1405E+01
     -2.147  0.4664E-01  0.1293E+00  0.1615E+01
     -2.090  0.3671E-01  0.1227E+00  0.1721E+01
     -2.033  0.3077E-01  0.1170E+00  0.1678E+01
     -1.975  0.2863E-01  0.1108E+00  0.1493E+01
     -1.918  0.2776E-01  0.1025E+00  0.1224E+01
     -1.861  0.2592E-01  0.9116E-01  0.9516E+00
     -1.804  0.2302E-01  0.7850E-01  0.7408E+00
     -1.747  0.2040E-01  0.6856E-01  0.6216E+00
     -1.690  0.1896E-01  0.6468E-01  0.5938E+00
     -1.632  0.1825E-01  0.6635E-01  0.6386E+00
     -1.575  0.1767E-01  0.7066E-01  0.7315E+00
     -1.518  0.1799E-01  0.7737E-01  0.8511E+00
     -1.461  0.2110E-01  0.8995E-01  0.9794E+00
     -1.404  0.2818E-01  0.1099E+00  0.1095E+01
     -1.346  0.3785E-01  0.1315E+00  0.1175E+01
     -1.289  0.4666E-01  0.1457E+00  0.1210E+01
     -1.232  0.5151E-01  0.1477E+00  0.1209E+01
     -1.175  0.5174E-01  0.1394E+00  0.1192E+01
     -1.118  0.4898E-01  0.1247E+00  0.1180E+01
     -1.061  0.4527E-01  0.1054E+00  0.1196E+01
     -1.003  0.4168E-01  0.8442E-01  0.1266E+01
     -0.946  0.3847E-01  0.6909E-01  0.1393E+01
     -0.889  0.3604E-01  0.6706E-01  0.1547E+01
     -0.832  0.3511E-01  0.7869E-01  0.1676E+01
     -0.775  0.3576E-01  0.9414E-01  0.1731E+01
     -0.717  0.3675E-01  0.1002E+00  0.1682E+01
     -0.660  0.3630E-01  0.9130E-01  0.1524E+01
     -0.603  0.3358E-01  0.7404E-01  0.1282E+01
     -0.546  0.2953E-01  0.6138E-01  0.1011E+01
     -0.489  0.2622E-01  0.6208E-01  0.7887E+00
     -0.432  0.2528E-01  0.7454E-01  0.6852E+00
     -0.374  0.2665E-01  0.8884E-01  0.7281E+00
     -0.317  0.2860E-01  0.9433E-01  0.8823E+00
     -0.260  0.2910E-01  0.8701E-01  0.1066E+01
     -0.203  0.2741E-01  0.7150E-01  0.1198E+01
     -0.146  0.2452E-01  0.5695E-01  0.1248E+01
     -0.088  0.2228E-01  0.5089E-01  0.1253E+01
     -0.031  0.2208E-01  0.5521E-01  0.1273E+01
      0.026  0.2378E-01  0.6557E-01  0.1328E+01
      0.083  0.2570E-01  0.7408E-01  0.1374E+01
      0.140  0.2577E-01  0.7415E-01  0.1347E+01
      0.197  0.2318E-01  0.6484E-01  0.1226E+01
      0.255  0.1907E-01  0.5107E-01  0.1054E+01
      0.312  0.1560E-01  0.3980E-01  0.9101E+00
      0.369  0.1451E-01  0.3572E-01  0.8591E+00
      0.426  0.1636E-01  0.3938E-01  0.9276E+00
      0.483  0.2059E-01  0.4780E-01  0.1096E+01
      0.541  0.2591E-01  0.5640E-01  0.1306E+01
      0.598  0.3064E-01  0.6139E-01  0.1484E+01
      0.655  0.3313E-01  0.6147E-01  0.1563E+01
      0.712  0.3231E-01  0.5742E-01  0.1513E+01
      0.769  0.2822E-01  0.5082E-01  0.1349E+01
      0.827  0.2266E-01  0.4356E-01  0.1127E+01
      0.884  0.1900E-01  0.3853E-01  0.9142E+00
      0.941  0.2060E-01  0.3892E-01  0.7563E+00
      0.998  0.2804E-01  0.4542E-01  0.6556E+00
      1.055  0.3749E-01  0.5435E-01  0.5860E+00
      1.112  0.4258E-01  0.5943E-01  0.5244E+00
      1.170  0.3909E-01  0.5652E-01  0.4687E+00
      1.227  0.2815E-01  0.4653E-01  0.4280E+00
      1.284  0.1499E-01  0.3414E-01  0.4011E+00
      1.341  0.4889E-02  0.2408E-01  0.3707E+00
      1.398  0.5491E-03  0.1923E-01  0.3240E+00
      1.456  0.2379E-02  0.2090E-01  0.2712E+00
      1.513  0.9368E-02  0.2896E-01  0.2352E+00
      1.570  0.1886E-01  0.4053E-01  0.2245E+00
      1.627  0.2655E-01  0.4981E-01  0.2228E+00
      1.684  0.2850E-01  0.5123E-01  0.2083E+00
      1.741  0.2397E-01  0.4370E-01  0.1747E+00
      1.799  0.1597E-01  0.3164E-01  0.1336E+00
      1.856  0.8626E-02  0.2126E-01  0.1002E+00
      1.913  0.4275E-02  0.1587E-01  0.8014E-01
      1.970  0.2642E-02  0.1437E-01  0.6889E-01
      2.027  0.2220E-02  0.1355E-01  0.5830E-01
      2.085  0.1830E-02  0.1111E-01  0.4362E-01
      2.142  0.1171E-02  0.7093E-02  0.2612E-01
      2.199  0.4800E-03  0.2999E-02  0.1061E-01
      2.256  0.1939E-04  0.1164E-03  0.8136E-03
      2.313 -0.1592E-03 -0.1277E-02 -0.3022E-02
      2.370 -0.1573E-03 -0.1467E-02 -0.3115E-02
      2.428 -0.9010E-04 -0.4640E-03 -0.1736E-02
      2.485 -0.1558E-04  0.2153E-02  0.1063E-04
      2.542  0.5257E-04  0.6448E-02  0.1833E-02
      2.599  0.1082E-03  0.1121E-01  0.3443E-02
      2.656  0.1376E-03  0.1419E-01  0.4306E-02
      2.714  0.1301E-03  0.1368E-01  0.4047E-02
      2.771  0.9262E-04  0.9999E-02  0.2869E-02
      2.828  0.4670E-04  0.5236E-02  0.1438E-02
      2.885  0.1221E-04  0.1512E-02  0.3697E-03
      2.942 -0.4180E-05 -0.3450E-03 -0.1341E-03
      2.999 -0.7358E-05 -0.7643E-03 -0.2292E-03
      3.057 -0.5148E-05 -0.5595E-03 -0.1593E-03
      3.114 -0.2504E-05 -0.2796E-03 -0.7713E-04
      3.171 -0.9399E-06 -0.1072E-03 -0.2886E-04
      3.228 -0.2832E-06 -0.3291E-04 -0.8669E-05
      3.285 -0.6982E-07 -0.8250E-05 -0.2131E-05
      3.343 -0.1424E-07 -0.1709E-05 -0.4334E-06
      3.400 -0.2418E-08 -0.2946E-06 -0.7342E-07
      3.457 -0.3436E-09 -0.4247E-07 -0.1041E-07
      3.514 -0.4098E-10 -0.5134E-08 -0.1238E-08
      3.571 -0.4112E-11 -0.5219E-09 -0.1240E-09
      3.628 -0.3478E-12 -0.4469E-10 -0.1046E-10
      3.686 -0.2482E-13 -0.3228E-11 -0.7448E-12
      3.743 -0.1497E-14 -0.1969E-12 -0.4481E-13
      3.800 -0.7624E-16 -0.1015E-13 -0.2277E-14
      3.857 -0.3373E-17 -0.4468E-15 -0.1008E-15
      3.914 -0.1015E-18 -0.1646E-16 -0.2902E-17
      3.972  0.0000E+00  0.0000E+00  0.0000E+00
      4.029  0.0000E+00  0.0000E+00  0.0000E+00
      4.086  0.0000E+00  0.0000E+00  0.0000E+00
      4.143  0.0000E+00  0.0000E+00  0.0000E+00
      4.200  0.0000E+00  0.0000E+00  0.0000E+00
      4.257  0.0000E+00  0.0000E+00  0.0000E+00
      4.315  0.0000E+00  0.0000E+00  0.0000E+00
      4.372  0.0000E+00  0.0000E+00  0.0000E+00
      4.429  0.0000E+00  0.0000E+00  0.0000E+00
      4.486  0.0000E+00  0.0000E+00  0.0000E+00
      4.543  0.0000E+00  0.0000E+00  0.0000E+00
      4.601  0.0000E+00  0.0000E+00  0.0000E+00
      4.658  0.0000E+00  0.0000E+00  0.0000E+00
      4.65774830    -12.49707478  301     -0.10958147      1.00000000
    -12.497  0.0000E+00  0.0000E+00  0.0000E+00
    -12.440  0.0000E+00  0.0000E+00  0.0000E+00
    -12.383  0.0000E+00  0.0000E+00  0.0000E+00
    -12.326  0.0000E+00  0.0000E+00  0.0000E+00
    -12.268  0.0000E+00  0.0000E+00  0.0000E+00
    -12.211  0.0000E+00  0.0000E+00  0.0000E+00
    -12.154 -0.3983E-31 -0.5122E-32 -0.1516E-34
    -12.097 -0.4005E-29 -0.5149E-30 -0.1524E-32
    -12.040 -0.3442E-27 -0.4426E-28 -0.1310E-30
    -11.982 -0.2509E-25 -0.3226E-26 -0.9553E-29
    -11.925 -0.1550E-23 -0.1992E-24 -0.5902E-27
    -11.868 -0.8111E-22 -0.1043E-22 -0.3091E-25
    -11.811 -0.3597E-20 -0.4625E-21 -0.1372E-23
    -11.754 -0.1351E-18 -0.1737E-19 -0.5162E-22
    -11.697 -0.4298E-17 -0.5527E-18 -0.1646E-20
    -11.639 -0.1121E-15 -0.1441E-16 -0.4308E-19
    -11.582 -0.2549E-14 -0.3277E-15 -0.9849E-18
    -11.525 -0.4893E-13 -0.6293E-14 -0.1905E-16
    -11.468 -0.7937E-12 -0.1021E-12 -0.3132E-15
    -11.411 -0.1087E-10 -0.1398E-11 -0.4375E-14
    -11.353 -0.1255E-09 -0.1615E-10 -0.5211E-13
    -11.296 -0.1222E-08 -0.1572E-09 -0.5313E-12
    -11.239 -0.1001E-07 -0.1289E-08 -0.4666E-11
    -11.182 -0.6892E-07 -0.8884E-08 -0.3555E-10
    -11.125 -0.3984E-06 -0.5144E-07 -0.2368E-09
    -11.068 -0.1930E-05 -0.2498E-06 -0.1388E-08
    -11.010 -0.7823E-05 -0.1016E-05 -0.7176E-08
    -10.953 -0.2647E-04 -0.3459E-05 -0.3256E-07
    -10.896 -0.7452E-04 -0.9828E-05 -0.1282E-06
    -10.839 -0.1734E-03 -0.2319E-04 -0.4300E-06
    -10.782 -0.3272E-03 -0.4472E-04 -0.1200E-05
    -10.724 -0.4719E-03 -0.6685E-04 -0.2685E-05
    -10.667 -0.3982E-03 -0.6185E-04 -0.4483E-05
    -10.610  0.3142E-03  0.2930E-04 -0.4431E-05
    -10.553  0.2234E-02  0.2900E-03  0.1749E-05
    -10.496  0.5710E-02  0.7741E-03  0.1784E-04
    -10.438  0.1022E-01  0.1411E-02  0.4165E-04
    -10.381  0.1410E-01  0.1962E-02  0.6272E-04
    -10.324  0.1543E-01  0.2155E-02  0.7054E-04
    -10.267  0.1383E-01  0.1948E-02  0.7032E-04
    -10.210  0.1132E-01  0.1657E-02  0.8916E-04
    -10.153  0.1089E-01  0.1734E-02  0.1594E-03
    -10.095  0.1387E-01  0.2365E-02  0.2895E-03
    -10.038  0.1878E-01  0.3295E-02  0.4476E-03
     -9.981  0.2255E-01  0.4006E-02  0.5715E-03
     -9.924  0.2265E-01  0.4057E-02  0.5968E-03
     -9.867  0.1853E-01  0.3331E-02  0.4933E-03
     -9.809  0.1179E-01  0.2105E-02  0.2981E-03
     -9.752  0.5557E-02  0.9820E-03  0.1289E-03
     -9.695  0.3236E-02  0.6591E-03  0.1470E-03
     -9.638  0.6700E-02  0.1546E-02  0.4620E-03
     -9.581  0.1473E-01  0.3398E-02  0.1018E-02
     -9.524  0.2315E-01  0.5312E-02  0.1579E-02
     -9.466  0.2739E-01  0.6300E-02  0.1887E-02
     -9.409  0.2595E-01  0.6053E-02  0.1877E-02
     -9.352  0.2109E-01  0.5096E-02  0.1702E-02
     -9.295  0.1610E-01  0.4119E-02  0.1522E-02
     -9.238  0.1231E-01  0.3303E-02  0.1320E-02
     -9.180  0.9524E-02  0.2431E-02  0.9953E-03
     -9.123  0.8549E-02  0.1535E-02  0.6157E-03
     -9.066  0.1218E-01  0.1213E-02  0.5224E-03
     -9.009  0.2282E-01  0.2251E-02  0.1151E-02
     -8.952  0.3902E-01  0.4886E-02  0.2676E-02
     -8.895  0.5465E-01  0.8358E-02  0.4733E-02
     -8.837  0.6278E-01  0.1120E-01  0.6488E-02
     -8.780  0.6151E-01  0.1220E-01  0.7164E-02
     -8.723  0.5587E-01  0.1138E-01  0.6669E-02
     -8.666  0.5334E-01  0.9926E-02  0.5689E-02
     -8.609  0.5689E-01  0.9052E-02  0.5029E-02
     -8.551  0.6222E-01  0.8855E-02  0.4806E-02
     -8.494  0.6157E-01  0.8334E-02  0.4398E-02
     -8.437  0.5059E-01  0.6604E-02  0.3261E-02
     -8.380  0.3292E-01  0.4147E-02  0.1825E-02
     -8.323  0.1920E-01  0.2936E-02  0.1586E-02
     -8.266  0.2070E-01  0.5153E-02  0.4132E-02
     -8.208  0.4098E-01  0.1129E-01  0.9677E-02
     -8.151  0.7143E-01  0.1912E-01  0.1629E-01
     -8.094  0.9582E-01  0.2478E-01  0.2084E-01
     -8.037  0.1020E+00  0.2549E-01  0.2130E-01
     -7.980  0.9083E-01  0.2144E-01  0.1854E-01
     -7.922  0.7333E-01  0.1518E-01  0.1621E-01
     -7.865  0.6147E-01  0.9568E-02  0.1913E-01
     -7.808  0.6146E-01  0.6686E-02  0.3110E-01
     -7.751  0.7400E-01  0.8032E-02  0.5283E-01
     -7.694  0.9691E-01  0.1448E-01  0.8118E-01
     -7.637  0.1261E+00  0.2530E-01  0.1106E+00
     -7.579  0.1556E+00  0.3734E-01  0.1356E+00
     -7.522  0.1780E+00  0.4603E-01  0.1530E+00
     -7.465  0.1880E+00  0.4825E-01  0.1626E+00
     -7.408  0.1855E+00  0.4489E-01  0.1676E+00