  96  96   1   0
  0.3594265E+02  0.1118178E-08  0.1132647E-08  0.3151027E-08  0.0000000E+00
  1.000000000000000E-004
  CAR 
 unknown system                          
     14.79008702    -11.18365013  301     -0.86504810      1.00000000
    -11.184  0.0000E+00  0.0000E+00
    -11.097  0.0000E+00  0.0000E+00
    -11.010  0.0000E+00  0.0000E+00
    -10.924  0.0000E+00  0.0000E+00
    -10.837 -0.2001E-29 -0.1733E-30
    -10.751 -0.1593E-23 -0.1379E-24
    -10.664 -0.2795E-18 -0.2420E-19
    -10.578 -0.1044E-13 -0.9039E-15
    -10.491 -0.8669E-10 -0.7506E-11
    -10.404 -0.1544E-06 -0.1338E-07
    -10.318 -0.5754E-04 -0.4995E-05
    -10.231 -0.4246E-02 -0.3726E-03
    -10.145 -0.5312E-01 -0.4971E-02
    -10.058  0.2675E-02 -0.4740E-02
     -9.972  0.1417E+01  0.1179E+00
     -9.885  0.5284E+01  0.5754E+00
     -9.798  0.3772E+01  0.9020E+00
     -9.712  0.5146E+01  0.1347E+01
     -9.625  0.6192E+01  0.1884E+01
     -9.539  0.2562E+01  0.2105E+01
     -9.452  0.2123E+01  0.2289E+01
     -9.365  0.6380E+01  0.2842E+01
     -9.279  0.1048E+02  0.3749E+01
     -9.192  0.5695E+01  0.4242E+01
     -9.106  0.6186E+01  0.4778E+01
     -9.019  0.9498E+01  0.5600E+01
     -8.933  0.1156E+02  0.6601E+01
     -8.846  0.5512E+01  0.7078E+01
     -8.759  0.4635E+01  0.7479E+01
     -8.673  0.1110E+02  0.8440E+01
     -8.586  0.1266E+02  0.9535E+01
     -8.500  0.9378E+01  0.1035E+02
     -8.413  0.1014E+02  0.1123E+02
     -8.327  0.1207E+02  0.1227E+02
     -8.240  0.1143E+02  0.1326E+02
     -8.153  0.1333E+02  0.1441E+02
     -8.067  0.1727E+02  0.1591E+02
     -7.980  0.2090E+02  0.1772E+02
     -7.894  0.1768E+02  0.1925E+02
     -7.807  0.2430E+02  0.2135E+02
     -7.720  0.3400E+02  0.2430E+02
     -7.634  0.3784E+02  0.2757E+02
     -7.547  0.4494E+02  0.3146E+02
     -7.461  0.5209E+02  0.3598E+02
     -7.374  0.6331E+02  0.4146E+02
     -7.288  0.7262E+02  0.4774E+02
     -7.201  0.8500E+02  0.5510E+02
     -7.114  0.9209E+02  0.6308E+02
     -7.028  0.9960E+02  0.7170E+02
     -6.941  0.1047E+03  0.8076E+02
     -6.855  0.9902E+02  0.8934E+02
     -6.768  0.9842E+02  0.9786E+02
     -6.682  0.1034E+03  0.1068E+03
     -6.595  0.1147E+03  0.1167E+03
     -6.508  0.1196E+03  0.1271E+03
     -6.422  0.1262E+03  0.1380E+03
     -6.335  0.1209E+03  0.1485E+03
     -6.249  0.1193E+03  0.1588E+03
     -6.162  0.1329E+03  0.1703E+03
     -6.075  0.1373E+03  0.1822E+03
     -5.989  0.1350E+03  0.1939E+03
     -5.902  0.1352E+03  0.2056E+03
     -5.816  0.1269E+03  0.2166E+03
     -5.729  0.1221E+03  0.2272E+03
     -5.643  0.1315E+03  0.2385E+03
     -5.556  0.1333E+03  0.2501E+03
     -5.469  0.1306E+03  0.2614E+03
     -5.383  0.1368E+03  0.2732E+03
     -5.296  0.1497E+03  0.2862E+03
     -5.210  0.1523E+03  0.2994E+03
     -5.123  0.1513E+03  0.3125E+03
     -5.037  0.1546E+03  0.3259E+03
     -4.950  0.1532E+03  0.3391E+03
     -4.863  0.1576E+03  0.3528E+03
     -4.777  0.1704E+03  0.3675E+03
     -4.690  0.1723E+03  0.3824E+03
     -4.604  0.1626E+03  0.3965E+03
     -4.517  0.1598E+03  0.4104E+03
     -4.430  0.1607E+03  0.4243E+03
     -4.344  0.1590E+03  0.4380E+03
     -4.257  0.1665E+03  0.4524E+03
     -4.171  0.1762E+03  0.4677E+03
     -4.084  0.1764E+03  0.4830E+03
     -3.998  0.1825E+03  0.4988E+03
     -3.911  0.1922E+03  0.5154E+03
     -3.824  0.1914E+03  0.5320E+03
     -3.738  0.1953E+03  0.5489E+03
     -3.651  0.2101E+03  0.5671E+03
     -3.565  0.2231E+03  0.5864E+03
     -3.478  0.2402E+03  0.6072E+03
     -3.392  0.2787E+03  0.6313E+03
     -3.305  0.3008E+03  0.6574E+03
     -3.218  0.2921E+03  0.6827E+03
     -3.132  0.2819E+03  0.7071E+03
     -3.045  0.2857E+03  0.7318E+03
     -2.959  0.3021E+03  0.7580E+03
     -2.872  0.3196E+03  0.7856E+03
     -2.785  0.3299E+03  0.8142E+03
     -2.699  0.3400E+03  0.8436E+03
     -2.612  0.3680E+03  0.8755E+03
     -2.526  0.4543E+03  0.9148E+03
     -2.439  0.5422E+03  0.9618E+03
     -2.353  0.3927E+03  0.9958E+03
     -2.266  0.1533E+03  0.1009E+04
     -2.179  0.6141E+02  0.1014E+04
     -2.093  0.3149E+02  0.1017E+04
     -2.006  0.2623E+02  0.1019E+04
     -1.920  0.4516E+02  0.1023E+04
     -1.833  0.4418E+02  0.1027E+04
     -1.747  0.4124E+02  0.1031E+04
     -1.660  0.2317E+02  0.1033E+04
     -1.573  0.8406E+01  0.1033E+04
     -1.487  0.1944E+02  0.1035E+04
     -1.400  0.4131E+02  0.1039E+04
     -1.314  0.5051E+02  0.1043E+04
     -1.227  0.3671E+02  0.1046E+04
     -1.140  0.3172E+02  0.1049E+04
     -1.054  0.3284E+02  0.1052E+04
     -0.967  0.2021E+02  0.1054E+04
     -0.881  0.2317E+02  0.1056E+04
     -0.794  0.3210E+02  0.1058E+04
     -0.708  0.3296E+02  0.1061E+04
     -0.621  0.2647E+02  0.1063E+04
     -0.534  0.2809E+02  0.1066E+04
     -0.448  0.2950E+02  0.1068E+04
     -0.361  0.3256E+02  0.1071E+04
     -0.275  0.3778E+02  0.1075E+04
     -0.188  0.2909E+02  0.1077E+04
     -0.102  0.3227E+02  0.1080E+04
     -0.015  0.3579E+02  0.1083E+04
      0.072  0.2690E+02  0.1085E+04
      0.158  0.2449E+02  0.1087E+04
      0.245  0.2992E+02  0.1090E+04
      0.331  0.3119E+02  0.1093E+04
      0.418  0.2941E+02  0.1095E+04
      0.505  0.2252E+02  0.1097E+04
      0.591  0.2211E+02  0.1099E+04
      0.678  0.2195E+02  0.1101E+04
      0.764  0.3266E+02  0.1104E+04
      0.851  0.4177E+02  0.1107E+04
      0.937  0.3767E+02  0.1111E+04
      1.024  0.3386E+02  0.1114E+04
      1.111  0.3319E+02  0.1117E+04
      1.197  0.2943E+02  0.1119E+04
      1.284  0.2483E+02  0.1121E+04
      1.370  0.1949E+02  0.1123E+04
      1.457  0.1481E+02  0.1124E+04
      1.543  0.1974E+02  0.1126E+04
      1.630  0.2489E+02  0.1128E+04
      1.717  0.2864E+02  0.1131E+04
      1.803  0.3459E+02  0.1134E+04
      1.890  0.3058E+02  0.1136E+04
      1.976  0.2283E+02  0.1138E+04
      2.063  0.2187E+02  0.1140E+04
      2.150  0.2300E+02  0.1142E+04
      2.236  0.1967E+02  0.1144E+04
      2.323  0.2054E+02  0.1146E+04
      2.409  0.2092E+02  0.1147E+04
      2.496  0.2675E+02  0.1150E+04
      2.582  0.3125E+02  0.1152E+04
      2.669  0.3524E+02  0.1155E+04
      2.756  0.3421E+02  0.1158E+04
      2.842  0.2934E+02  0.1161E+04
      2.929  0.2133E+02  0.1163E+04
      3.015  0.2348E+02  0.1165E+04
      3.102  0.2727E+02  0.1167E+04
      3.188  0.2978E+02  0.1170E+04
      3.275  0.2701E+02  0.1172E+04
      3.362  0.3124E+02  0.1175E+04
      3.448  0.4133E+02  0.1178E+04
      3.535  0.4472E+02  0.1182E+04
      3.621  0.4657E+02  0.1186E+04
      3.708  0.4350E+02  0.1190E+04
      3.795  0.4715E+02  0.1194E+04
      3.881  0.3999E+02  0.1198E+04
      3.968  0.3365E+02  0.1200E+04
      4.054  0.3709E+02  0.1204E+04
      4.141  0.4277E+02  0.1207E+04
      4.227  0.4341E+02  0.1211E+04
      4.314  0.4458E+02  0.1215E+04
      4.401  0.4064E+02  0.1219E+04
      4.487  0.4654E+02  0.1223E+04
      4.574  0.5199E+02  0.1227E+04
      4.660  0.4222E+02  0.1231E+04
      4.747  0.3766E+02  0.1234E+04
      4.833  0.4765E+02  0.1238E+04
      4.920  0.5510E+02  0.1243E+04
      5.007  0.4156E+02  0.1246E+04
      5.093  0.4732E+02  0.1251E+04
      5.180  0.4528E+02  0.1254E+04
      5.266  0.4036E+02  0.1258E+04
      5.353  0.4839E+02  0.1262E+04
      5.440  0.6113E+02  0.1267E+04
      5.526  0.5643E+02  0.1272E+04
      5.613  0.4873E+02  0.1277E+04
      5.699  0.6184E+02  0.1282E+04
      5.786  0.5723E+02  0.1287E+04
      5.872  0.4134E+02  0.1290E+04
      5.959  0.4480E+02  0.1294E+04
      6.046  0.6109E+02  0.1300E+04
      6.132  0.5950E+02  0.1305E+04
      6.219  0.6601E+02  0.1310E+04
      6.305  0.7310E+02  0.1317E+04
      6.392  0.6647E+02  0.1323E+04
      6.478  0.5248E+02  0.1327E+04
      6.565  0.4832E+02  0.1331E+04
      6.652  0.4851E+02  0.1335E+04
      6.738  0.4928E+02  0.1340E+04
      6.825  0.5132E+02  0.1344E+04
      6.911  0.5436E+02  0.1349E+04
      6.998  0.5506E+02  0.1354E+04
      7.085  0.6283E+02  0.1359E+04
      7.171  0.6053E+02  0.1364E+04
      7.258  0.5895E+02  0.1369E+04
      7.344  0.6357E+02  0.1375E+04
      7.431  0.7088E+02  0.1381E+04
      7.517  0.7395E+02  0.1388E+04
      7.604  0.6489E+02  0.1393E+04
      7.691  0.6137E+02  0.1398E+04
      7.777  0.6627E+02  0.1404E+04
      7.864  0.7104E+02  0.1410E+04
      7.950  0.7108E+02  0.1416E+04
      8.037  0.7325E+02  0.1423E+04
      8.123  0.7158E+02  0.1429E+04
      8.210  0.7021E+02  0.1435E+04
      8.297  0.6033E+02  0.1440E+04
      8.383  0.5536E+02  0.1445E+04
      8.470  0.6571E+02  0.1451E+04
      8.556  0.7378E+02  0.1457E+04
      8.643  0.7461E+02  0.1464E+04
      8.730  0.6350E+02  0.1469E+04
      8.816  0.5637E+02  0.1474E+04
      8.903  0.6701E+02  0.1480E+04
      8.989  0.7634E+02  0.1486E+04
      9.076  0.8026E+02  0.1493E+04
      9.162  0.8659E+02  0.1501E+04
      9.249  0.8780E+02  0.1508E+04
      9.336  0.7919E+02  0.1515E+04
      9.422  0.6893E+02  0.1521E+04
      9.509  0.7037E+02  0.1527E+04
      9.595  0.7009E+02  0.1533E+04
      9.682  0.6394E+02  0.1539E+04
      9.768  0.6883E+02  0.1545E+04
      9.855  0.7801E+02  0.1552E+04
      9.942  0.8653E+02  0.1559E+04
     10.028  0.8696E+02  0.1567E+04
     10.115  0.8576E+02  0.1574E+04
     10.201  0.8884E+02  0.1582E+04
     10.288  0.9139E+02  0.1590E+04
     10.375  0.9038E+02  0.1598E+04
     10.461  0.8105E+02  0.1605E+04
     10.548  0.8068E+02  0.1612E+04
     10.634  0.8587E+02  0.1619E+04
     10.721  0.8022E+02  0.1626E+04
     10.807  0.8055E+02  0.1633E+04
     10.894  0.7537E+02  0.1639E+04
     10.981  0.7289E+02  0.1646E+04
     11.067  0.7718E+02  0.1652E+04
     11.154  0.8213E+02  0.1660E+04
     11.240  0.8246E+02  0.1667E+04
     11.327  0.7466E+02  0.1673E+04
     11.414  0.7437E+02  0.1680E+04
     11.500  0.8626E+02  0.1687E+04
     11.587  0.8929E+02  0.1695E+04
     11.673  0.9069E+02  0.1703E+04
     11.760  0.9346E+02  0.1711E+04
     11.846  0.8891E+02  0.1718E+04
     11.933  0.8125E+02  0.1725E+04
     12.020  0.8166E+02  0.1733E+04
     12.106  0.8034E+02  0.1740E+04
     12.193  0.7658E+02  0.1746E+04
     12.279  0.8529E+02  0.1754E+04
     12.366  0.8667E+02  0.1761E+04
     12.452  0.8357E+02  0.1768E+04
     12.539  0.7986E+02  0.1775E+04
     12.626  0.7786E+02  0.1782E+04
     12.712  0.8263E+02  0.1789E+04
     12.799  0.8423E+02  0.1796E+04
     12.885  0.8057E+02  0.1803E+04
     12.972  0.7358E+02  0.1810E+04
     13.059  0.6728E+02  0.1816E+04
     13.145  0.6588E+02  0.1821E+04
     13.232  0.6265E+02  0.1827E+04
     13.318  0.5722E+02  0.1832E+04
     13.405  0.4653E+02  0.1836E+04
     13.491  0.3420E+02  0.1839E+04
     13.578  0.1436E+02  0.1840E+04
     13.665  0.2035E+01  0.1840E+04
     13.751 -0.3224E+00  0.1840E+04
     13.838 -0.9836E-01  0.1840E+04
     13.924 -0.5270E-02  0.1840E+04
     14.011 -0.6227E-04  0.1840E+04
     14.097 -0.1592E-06  0.1840E+04
     14.184 -0.8774E-10  0.1840E+04
     14.271 -0.1058E-13  0.1840E+04
     14.357  0.0000E+00  0.1840E+04
     14.444  0.0000E+00  0.1840E+04
     14.530  0.0000E+00  0.1840E+04
     14.617  0.0000E+00  0.1840E+04
     14.704  0.0000E+00  0.1840E+04
     14.790  0.0000E+00  0.1840E+04
     14.79008702    -11.18365013  301     -0.86504810      1.00000000
    -11.184  0.0000E+00  0.0000E+00  0.0000E+00
    -11.097  0.0000E+00  0.0000E+00  0.0000E+00
    -11.010  0.0000E+00  0.0000E+00  0.0000E+00
    -10.924  0.0000E+00  0.0000E+00  0.0000E+00
    -10.837 -0.3761E-32 -0.3309E-33 -0.1548E-33
    -10.751 -0.2994E-26 -0.2635E-27 -0.1233E-27
    -10.664 -0.5252E-21 -0.4622E-22 -0.2162E-22
    -10.578 -0.1962E-16 -0.1726E-17 -0.8077E-18
    -10.491 -0.1629E-12 -0.1433E-13 -0.6707E-14
    -10.404 -0.2902E-09 -0.2554E-10 -0.1195E-10
    -10.318 -0.1081E-06 -0.9519E-08 -0.4455E-08
    -10.231 -0.7976E-05 -0.7040E-06 -0.3300E-06
    -10.145 -0.9946E-04 -0.8974E-05 -0.4252E-05
    -10.058  0.1226E-04 -0.2616E-05 -0.1948E-05
     -9.972  0.2653E-02  0.2414E-03  0.1151E-03
     -9.885  0.9758E-02  0.9519E-03  0.4599E-03
     -9.798  0.7018E-02  0.6885E-03  0.3390E-03
     -9.712  0.8402E-02  0.9515E-03  0.5384E-03
     -9.625  0.8046E-02  0.1097E-02  0.6081E-03
     -9.539  0.4084E-02  0.6768E-03  0.3307E-03
     -9.452  0.6478E-02  0.9350E-03  0.5130E-03
     -9.365  0.3090E-01  0.3392E-02  0.3087E-02
     -9.279  0.5898E-01  0.6135E-02  0.6104E-02
     -9.192  0.3106E-01  0.3046E-02  0.2901E-02
     -9.106  0.3140E-01  0.3381E-02  0.2826E-02
     -9.019  0.3787E-01  0.4446E-02  0.3984E-02
     -8.933  0.3283E-01  0.3680E-02  0.3955E-02
     -8.846  0.2038E-01  0.2121E-02  0.2375E-02
     -8.759  0.1918E-01  0.2417E-02  0.3272E-02
     -8.673  0.4645E-01  0.4952E-02  0.7770E-02
     -8.586  0.4540E-01  0.5521E-02  0.8967E-02
     -8.500  0.3976E-01  0.4030E-02  0.7209E-02
     -8.413  0.6954E-01  0.4787E-02  0.1039E-01
     -8.327  0.6419E-01  0.5253E-02  0.1511E-01
     -8.240  0.7358E-01  0.6152E-02  0.1867E-01
     -8.153  0.1201E+00  0.7451E-02  0.2812E-01
     -8.067  0.1446E+00  0.9009E-02  0.3982E-01
     -7.980  0.1475E+00  0.1086E-01  0.4648E-01
     -7.894  0.1612E+00  0.9424E-02  0.5486E-01
     -7.807  0.2242E+00  0.1313E-01  0.8756E-01
     -7.720  0.1783E+00  0.1644E-01  0.9633E-01
     -7.634  0.1381E+00  0.1832E-01  0.1372E+00
     -7.547  0.1345E+00  0.2253E-01  0.2104E+00
     -7.461  0.9907E-01  0.2996E-01  0.2680E+00
     -7.374  0.7317E-01  0.3695E-01  0.3079E+00
     -7.288  0.6246E-01  0.3752E-01  0.3478E+00
     -7.201  0.8847E-01  0.3409E-01  0.4248E+00
     -7.114  0.1385E+00  0.3539E-01  0.4691E+00
     -7.028  0.2466E+00  0.3953E-01  0.6235E+00
     -6.941  0.2493E+00  0.4339E-01  0.1054E+01
     -6.855  0.1195E+00  0.3905E-01  0.1280E+01
     -6.768  0.6870E-01  0.3051E-01  0.1081E+01
     -6.682  0.1249E+00  0.3190E-01  0.1106E+01
     -6.595  0.1528E+00  0.3105E-01  0.1398E+01
     -6.508  0.1169E+00  0.2824E-01  0.1415E+01
     -6.422  0.1268E+00  0.3017E-01  0.1253E+01
     -6.335  0.8797E-01  0.3061E-01  0.1101E+01
     -6.249  0.4744E-01  0.3343E-01  0.1063E+01
     -6.162  0.4635E-01  0.3919E-01  0.1174E+01
     -6.075  0.5239E-01  0.4991E-01  0.1501E+01
     -5.989  0.6001E-01  0.5774E-01  0.1565E+01
     -5.902  0.6191E-01  0.5244E-01  0.1508E+01
     -5.816  0.5709E-01  0.4798E-01  0.1651E+01
     -5.729  0.5870E-01  0.4776E-01  0.1926E+01
     -5.643  0.6180E-01  0.4786E-01  0.2369E+01
     -5.556  0.4504E-01  0.4369E-01  0.1992E+01
     -5.469  0.3562E-01  0.4260E-01  0.1599E+01
     -5.383  0.3013E-01  0.5269E-01  0.1581E+01
     -5.296  0.3841E-01  0.5922E-01  0.1562E+01
     -5.210  0.5769E-01  0.5844E-01  0.1603E+01
     -5.123  0.6201E-01  0.6443E-01  0.1909E+01
     -5.037  0.5334E-01  0.6185E-01  0.2104E+01
     -4.950  0.4676E-01  0.5676E-01  0.2167E+01
     -4.863  0.4755E-01  0.5416E-01  0.2418E+01
     -4.777  0.5346E-01  0.4762E-01  0.2537E+01
     -4.690  0.5659E-01  0.4312E-01  0.2260E+01
     -4.604  0.6208E-01  0.4355E-01  0.1968E+01
     -4.517  0.7704E-01  0.4662E-01  0.2107E+01
     -4.430  0.7310E-01  0.5264E-01  0.2289E+01
     -4.344  0.7256E-01  0.5651E-01  0.2554E+01
     -4.257  0.6801E-01  0.4848E-01  0.2891E+01
     -4.171  0.5170E-01  0.4142E-01  0.2857E+01
     -4.084  0.5028E-01  0.3822E-01  0.2645E+01
     -3.998  0.4658E-01  0.3708E-01  0.3155E+01
     -3.911  0.5335E-01  0.3842E-01  0.3670E+01
     -3.824  0.5233E-01  0.3518E-01  0.2874E+01
     -3.738  0.4232E-01  0.3916E-01  0.1972E+01
     -3.651  0.4963E-01  0.4860E-01  0.1534E+01
     -3.565  0.5516E-01  0.4927E-01  0.1415E+01
     -3.478  0.6596E-01  0.4189E-01  0.1534E+01
     -3.392  0.8562E-01  0.4516E-01  0.1845E+01
     -3.305  0.8574E-01  0.5149E-01  0.1819E+01
     -3.218  0.6761E-01  0.4577E-01  0.1512E+01
     -3.132  0.4578E-01  0.4324E-01  0.1211E+01
     -3.045  0.3637E-01  0.4860E-01  0.1214E+01
     -2.959  0.3176E-01  0.5509E-01  0.1267E+01
     -2.872  0.2781E-01  0.5323E-01  0.1124E+01
     -2.785  0.2629E-01  0.4829E-01  0.1058E+01
     -2.699  0.2780E-01  0.4529E-01  0.1146E+01
     -2.612  0.3584E-01  0.4480E-01  0.1266E+01
     -2.526  0.4118E-01  0.3986E-01  0.1290E+01
     -2.439  0.4189E-01  0.3528E-01  0.1188E+01
     -2.353  0.3738E-01  0.3400E-01  0.8918E+00
     -2.266  0.3965E-01  0.3027E-01  0.6147E+00
     -2.179  0.6883E-01  0.3740E-01  0.3521E+00
     -2.093  0.4550E-01  0.2599E-01  0.1551E+00
     -2.006  0.1526E-01  0.1876E-01  0.9463E-01
     -1.920  0.4096E-01  0.2743E-01  0.1311E+00
     -1.833  0.4671E-01  0.2884E-01  0.1617E+00
     -1.747  0.4517E-01  0.3344E-01  0.2151E+00
     -1.660  0.2314E-01  0.2046E-01  0.1294E+00
     -1.573  0.1426E-01  0.1371E-01  0.4014E-01
     -1.487  0.4279E-01  0.4439E-01  0.1210E+00
     -1.400  0.1024E+00  0.7698E-01  0.2285E+00
     -1.314  0.1264E+00  0.8702E-01  0.2349E+00
     -1.227  0.6843E-01  0.6874E-01  0.1572E+00
     -1.140  0.2619E-01  0.5221E-01  0.9271E-01
     -1.054  0.2657E-01  0.4018E-01  0.8305E-01
     -0.967  0.3005E-01  0.2461E-01  0.5884E-01
     -0.881  0.3338E-01  0.4310E-01  0.1189E+00
     -0.794  0.4759E-01  0.5851E-01  0.1479E+00
     -0.708  0.4609E-01  0.6722E-01  0.1428E+00
     -0.621  0.4208E-01  0.5184E-01  0.9759E-01
     -0.534  0.6972E-01  0.8341E-01  0.7822E-01
     -0.448  0.7061E-01  0.1000E+00  0.9714E-01
     -0.361  0.6183E-01  0.9700E-01  0.1469E+00
     -0.275  0.7441E-01  0.9485E-01  0.1918E+00
     -0.188  0.7627E-01  0.5766E-01  0.1305E+00
     -0.102  0.6290E-01  0.7001E-01  0.1136E+00
     -0.015  0.4626E-01  0.8215E-01  0.1018E+00
      0.072  0.2959E-01  0.4785E-01  0.6396E-01
      0.158  0.3255E-01  0.4647E-01  0.6133E-01
      0.245  0.3930E-01  0.7129E-01  0.1066E+00
      0.331  0.4288E-01  0.8895E-01  0.1217E+00
      0.418  0.4282E-01  0.8982E-01  0.1027E+00
      0.505  0.3792E-01  0.6981E-01  0.8173E-01
      0.591  0.4151E-01  0.6600E-01  0.1005E+00
      0.678  0.4379E-01  0.6983E-01  0.8779E-01
      0.764  0.7189E-01  0.9851E-01  0.8971E-01
      0.851  0.9491E-01  0.1160E+00  0.1180E+00
      0.937  0.7330E-01  0.1081E+00  0.1190E+00
      1.024  0.4344E-01  0.1077E+00  0.1042E+00
      1.111  0.3846E-01  0.1029E+00  0.9328E-01
      1.197  0.2912E-01  0.9090E-01  0.8670E-01
      1.284  0.2974E-01  0.6438E-01  0.7475E-01
      1.370  0.2101E-01  0.4078E-01  0.6041E-01
      1.457  0.1914E-01  0.3112E-01  0.3920E-01
      1.543  0.2438E-01  0.4565E-01  0.4621E-01
      1.630  0.2079E-01  0.6795E-01  0.6523E-01
      1.717  0.3019E-01  0.8417E-01  0.8560E-01
      1.803  0.4667E-01  0.1027E+00  0.9312E-01
      1.890  0.4047E-01  0.8521E-01  0.7575E-01
      1.976  0.4168E-01  0.6940E-01  0.7269E-01
      2.063  0.5212E-01  0.7578E-01  0.6455E-01
      2.150  0.4695E-01  0.7959E-01  0.6769E-01
      2.236  0.2772E-01  0.5587E-01  0.4840E-01
      2.323  0.3311E-01  0.2867E-01  0.4092E-01
      2.409  0.3407E-01  0.3640E-01  0.4413E-01
      2.496  0.3013E-01  0.5753E-01  0.5244E-01
      2.582  0.3932E-01  0.5953E-01  0.5951E-01
      2.669  0.3904E-01  0.6974E-01  0.6356E-01
      2.756  0.4024E-01  0.9023E-01  0.5792E-01
      2.842  0.3337E-01  0.8633E-01  0.5619E-01
      2.929  0.3832E-01  0.4890E-01  0.4409E-01
      3.015  0.7137E-01  0.3829E-01  0.4548E-01
      3.102  0.8305E-01  0.5043E-01  0.5023E-01
      3.188  0.1051E+00  0.5427E-01  0.5413E-01
      3.275  0.8902E-01  0.4809E-01  0.5807E-01
      3.362  0.8704E-01  0.5467E-01  0.5717E-01
      3.448  0.1280E+00  0.8586E-01  0.6675E-01
      3.535  0.1433E+00  0.1076E+00  0.8820E-01
      3.621  0.1448E+00  0.1098E+00  0.1031E+00
      3.708  0.1151E+00  0.7367E-01  0.9342E-01
      3.795  0.1594E+00  0.8136E-01  0.8297E-01
      3.881  0.1740E+00  0.7647E-01  0.6886E-01
      3.968  0.1330E+00  0.4734E-01  0.6857E-01
      4.054  0.8552E-01  0.6437E-01  0.8092E-01
      4.141  0.1012E+00  0.8067E-01  0.9296E-01
      4.227  0.1391E+00  0.7136E-01  0.9177E-01
      4.314  0.1346E+00  0.7139E-01  0.6744E-01
      4.401  0.9197E-01  0.7445E-01  0.5846E-01
      4.487  0.7756E-01  0.8481E-01  0.6863E-01
      4.574  0.1037E+00  0.9390E-01  0.6783E-01
      4.660  0.9112E-01  0.9215E-01  0.5092E-01
      4.747  0.7249E-01  0.6461E-01  0.4745E-01
      4.833  0.8406E-01  0.6429E-01  0.5178E-01
      4.920  0.1000E+00  0.9103E-01  0.6088E-01
      5.007  0.6990E-01  0.7356E-01  0.5830E-01
      5.093  0.6172E-01  0.7251E-01  0.6457E-01
      5.180  0.6358E-01  0.9237E-01  0.7069E-01
      5.266  0.4450E-01  0.1017E+00  0.6356E-01
      5.353  0.4205E-01  0.1137E+00  0.6859E-01
      5.440  0.5317E-01  0.1201E+00  0.6928E-01
      5.526  0.4574E-01  0.8890E-01  0.5401E-01
      5.613  0.6344E-01  0.7678E-01  0.5597E-01
      5.699  0.8646E-01  0.1232E+00  0.7974E-01
      5.786  0.7476E-01  0.1325E+00  0.6971E-01
      5.872  0.5747E-01  0.9777E-01  0.6056E-01
      5.959  0.3745E-01  0.9690E-01  0.5802E-01
      6.046  0.4140E-01  0.1011E+00  0.6328E-01
      6.132  0.3422E-01  0.1186E+00  0.6268E-01
      6.219  0.4323E-01  0.1284E+00  0.6531E-01
      6.305  0.5682E-01  0.1301E+00  0.6668E-01
      6.392  0.6005E-01  0.1183E+00  0.5911E-01
      6.478  0.5566E-01  0.9019E-01  0.5149E-01
      6.565  0.5258E-01  0.9008E-01  0.5156E-01
      6.652  0.4704E-01  0.9592E-01  0.4484E-01
      6.738  0.4347E-01  0.9303E-01  0.4331E-01
      6.825  0.4290E-01  0.9166E-01  0.4771E-01
      6.911  0.4281E-01  0.1059E+00  0.5538E-01
      6.998  0.6139E-01  0.1064E+00  0.5777E-01
      7.085  0.8087E-01  0.1235E+00  0.7170E-01
      7.171  0.6385E-01  0.1142E+00  0.6438E-01
      7.258  0.4467E-01  0.9824E-01  0.5812E-01
      7.344  0.4570E-01  0.1026E+00  0.7172E-01
      7.431  0.5915E-01  0.1141E+00  0.8500E-01
      7.517  0.5521E-01  0.1255E+00  0.8226E-01
      7.604  0.5952E-01  0.1249E+00  0.8063E-01
      7.691  0.5488E-01  0.1191E+00  0.7538E-01
      7.777  0.6392E-01  0.1229E+00  0.6721E-01
      7.864  0.8534E-01  0.1332E+00  0.7013E-01
      7.950  0.8055E-01  0.1477E+00  0.6837E-01
      8.037  0.6512E-01  0.1454E+00  0.6982E-01
      8.123  0.5620E-01  0.1273E+00  0.6831E-01
      8.210  0.4668E-01  0.9903E-01  0.7000E-01
      8.297  0.3620E-01  0.8816E-01  0.5824E-01
      8.383  0.2652E-01  0.1062E+00  0.5083E-01
      8.470  0.3770E-01  0.1337E+00  0.6270E-01
      8.556  0.5005E-01  0.1423E+00  0.8423E-01
      8.643  0.4711E-01  0.1295E+00  0.8439E-01
      8.730  0.4179E-01  0.1198E+00  0.6717E-01
      8.816  0.4324E-01  0.1051E+00  0.6006E-01
      8.903  0.4447E-01  0.1103E+00  0.7798E-01
      8.989  0.4497E-01  0.1326E+00  0.8274E-01
      9.076  0.5267E-01  0.1605E+00  0.8647E-01
      9.162  0.5123E-01  0.1699E+00  0.9649E-01
      9.249  0.5221E-01  0.1655E+00  0.8988E-01
      9.336  0.5028E-01  0.1655E+00  0.7672E-01
      9.422  0.3265E-01  0.1155E+00  0.7097E-01
      9.509  0.2988E-01  0.1088E+00  0.7386E-01
      9.595  0.3133E-01  0.1203E+00  0.7001E-01
      9.682  0.2660E-01  0.9620E-01  0.5868E-01
      9.768  0.2664E-01  0.9836E-01  0.6431E-01
      9.855  0.3420E-01  0.1365E+00  0.7604E-01
      9.942  0.4557E-01  0.1686E+00  0.8583E-01
     10.028  0.4735E-01  0.1626E+00  0.8788E-01
     10.115  0.4362E-01  0.1704E+00  0.8686E-01
     10.201  0.5264E-01  0.1777E+00  0.8975E-01
     10.288  0.5502E-01  0.1758E+00  0.9739E-01
     10.375  0.3887E-01  0.1549E+00  0.9770E-01
     10.461  0.2755E-01  0.1380E+00  0.8251E-01
     10.548  0.2354E-01  0.1421E+00  0.7212E-01
     10.634  0.2685E-01  0.1408E+00  0.7903E-01
     10.721  0.2826E-01  0.1305E+00  0.8469E-01
     10.807  0.2508E-01  0.1413E+00  0.8488E-01
     10.894  0.2458E-01  0.1330E+00  0.8058E-01
     10.981  0.3069E-01  0.1444E+00  0.8377E-01
     11.067  0.3433E-01  0.1682E+00  0.8664E-01
     11.154  0.2550E-01  0.1577E+00  0.8614E-01
     11.240  0.2651E-01  0.1743E+00  0.8735E-01
     11.327  0.2369E-01  0.1751E+00  0.8692E-01
     11.414  0.2042E-01  0.1396E+00  0.7843E-01
     11.500  0.3428E-01  0.1549E+00  0.7779E-01
     11.587  0.3708E-01  0.1561E+00  0.8371E-01
     11.673  0.2791E-01  0.1526E+00  0.8990E-01
     11.760  0.2851E-01  0.1641E+00  0.8953E-01
     11.846  0.2671E-01  0.1721E+00  0.8715E-01
     11.933  0.2636E-01  0.1535E+00  0.8497E-01
     12.020  0.2627E-01  0.1346E+00  0.8582E-01
     12.106  0.2077E-01  0.1382E+00  0.8466E-01
     12.193  0.2114E-01  0.1490E+00  0.8183E-01
     12.279  0.2710E-01  0.1783E+00  0.9895E-01
     12.366  0.3071E-01  0.1547E+00  0.1020E+00
     12.452  0.3002E-01  0.1246E+00  0.9805E-01
     12.539  0.2707E-01  0.1263E+00  0.8905E-01
     12.626  0.2592E-01  0.1339E+00  0.8832E-01
     12.712  0.2454E-01  0.1407E+00  0.1030E+00
     12.799  0.2247E-01  0.1537E+00  0.1040E+00
     12.885  0.2066E-01  0.1461E+00  0.9893E-01
     12.972  0.2093E-01  0.1256E+00  0.8190E-01
     13.059  0.1861E-01  0.1090E+00  0.7263E-01
     13.145  0.1365E-01  0.1029E+00  0.6699E-01
     13.232  0.1462E-01  0.9841E-01  0.6463E-01
     13.318  0.1428E-01  0.8294E-01  0.6385E-01
     13.405  0.1057E-01  0.6633E-01  0.4763E-01
     13.491  0.8285E-02  0.4997E-01  0.3390E-01
     13.578  0.2710E-02  0.1932E-01  0.1887E-01
     13.665  0.1187E-02  0.2307E-02  0.3244E-02
     13.751  0.2140E-03 -0.4580E-03 -0.5604E-03
     13.838 -0.6359E-04 -0.1256E-03 -0.1213E-03
     13.924 -0.6069E-05 -0.6079E-05 -0.4975E-05
     14.011 -0.8370E-07 -0.6646E-07 -0.5141E-07
     14.097 -0.2250E-09 -0.1627E-09 -0.1245E-09
     14.184 -0.1263E-12 -0.8782E-13 -0.6721E-13
     14.271 -0.1540E-16 -0.1040E-16 -0.7994E-17
     14.357  0.0000E+00  0.0000E+00  0.0000E+00
     14.444  0.0000E+00  0.0000E+00  0.0000E+00
     14.530  0.0000E+00  0.0000E+00  0.0000E+00
     14.617  0.0000E+00  0.0000E+00  0.0000E+00
     14.704  0.0000E+00  0.0000E+00  0.0000E+00
     14.790  0.0000E+00  0.0000E+00  0.0000E+00
     14.79008702    -11.18365013  301     -0.86504810      1.00000000
    -11.184  0.0000E+00  0.0000E+00  0.0000E+00
    -11.097  0.0000E+00  0.0000E+00  0.0000E+00
    -11.010  0.0000E+00  0.0000E+00  0.0000E+00
    -10.924  0.0000E+00  0.0000E+00  0.0000E+00
    -10.837 -0.5416E-32 -0.5693E-33 -0.1280E-33
    -10.751 -0.4312E-26 -0.4533E-27 -0.1019E-27
    -10.664 -0.7564E-21 -0.7951E-22 -0.1788E-22
    -10.578 -0.2825E-16 -0.2970E-17 -0.6678E-18
    -10.491 -0.2346E-12 -0.2466E-13 -0.5545E-14
    -10.404 -0.4179E-09 -0.4393E-10 -0.9879E-11
    -10.318 -0.1557E-06 -0.1638E-07 -0.3685E-08
    -10.231 -0.1150E-04 -0.1211E-05 -0.2739E-06
    -10.145 -0.1448E-03 -0.1542E-04 -0.3631E-05
    -10.058 -0.7874E-05 -0.4006E-05 -0.3498E-05
     -9.972  0.3877E-02  0.4145E-03  0.9928E-04
     -9.885  0.1463E-01  0.1619E-02  0.4260E-03
     -9.798  0.1066E-01  0.1181E-02  0.3178E-03
     -9.712  0.1500E-01  0.1754E-02  0.6018E-03
     -9.625  0.1556E-01  0.1997E-02  0.8096E-03
     -9.539  0.7958E-02  0.1052E-02  0.3999E-03
     -9.452  0.1187E-01  0.1362E-02  0.4139E-03
     -9.365  0.5567E-01  0.5435E-02  0.2328E-02
     -9.279  0.1085E+00  0.1007E-01  0.4378E-02
     -9.192  0.4075E-01  0.4363E-02  0.2748E-02
     -9.106  0.2445E-01  0.3835E-02  0.3530E-02
     -9.019  0.4211E-01  0.5814E-02  0.4843E-02
     -8.933  0.2742E-01  0.5254E-02  0.5640E-02
     -8.846  0.6377E-02  0.2724E-02  0.3668E-02
     -8.759  0.1201E-01  0.2584E-02  0.3964E-02
     -8.673  0.3356E-01  0.6139E-02  0.8433E-02
     -8.586  0.3359E-01  0.7743E-02  0.1121E-01
     -8.500  0.4496E-01  0.6319E-02  0.7505E-02
     -8.413  0.4370E-01  0.6629E-02  0.8970E-02
     -8.327  0.4366E-01  0.6252E-02  0.1266E-01
     -8.240  0.5604E-01  0.7568E-02  0.1699E-01
     -8.153  0.1093E+00  0.1070E-01  0.2620E-01
     -8.067  0.1293E+00  0.1117E-01  0.3789E-01
     -7.980  0.9105E-01  0.1257E-01  0.4925E-01
     -7.894  0.1128E+00  0.1248E-01  0.5060E-01
     -7.807  0.1550E+00  0.1636E-01  0.9794E-01
     -7.720  0.1124E+00  0.1921E-01  0.1254E+00
     -7.634  0.1361E+00  0.1957E-01  0.1563E+00
     -7.547  0.1546E+00  0.2137E-01  0.2534E+00
     -7.461  0.1912E+00  0.2272E-01  0.3375E+00
     -7.374  0.2535E+00  0.3209E-01  0.3658E+00
     -7.288  0.1756E+00  0.4154E-01  0.3846E+00
     -7.201  0.1371E+00  0.4520E-01  0.4556E+00
     -7.114  0.1757E+00  0.4406E-01  0.5384E+00
     -7.028  0.1790E+00  0.4905E-01  0.8253E+00
     -6.941  0.1402E+00  0.5604E-01  0.1293E+01
     -6.855  0.1270E+00  0.4490E-01  0.1203E+01
     -6.768  0.1201E+00  0.3418E-01  0.8186E+00
     -6.682  0.8771E-01  0.3584E-01  0.7536E+00
     -6.595  0.7801E-01  0.4286E-01  0.8738E+00
     -6.508  0.8746E-01  0.4815E-01  0.9966E+00
     -6.422  0.9022E-01  0.4617E-01  0.1091E+01
     -6.335  0.6516E-01  0.3841E-01  0.1056E+01
     -6.249  0.7025E-01  0.3408E-01  0.1231E+01
     -6.162  0.8823E-01  0.3709E-01  0.1621E+01
     -6.075  0.8686E-01  0.3704E-01  0.1788E+01
     -5.989  0.6242E-01  0.3727E-01  0.1793E+01
     -5.902  0.5500E-01  0.3457E-01  0.1589E+01
     -5.816  0.6474E-01  0.2763E-01  0.1410E+01
     -5.729  0.5843E-01  0.2444E-01  0.1421E+01
     -5.643  0.5047E-01  0.3057E-01  0.1791E+01
     -5.556  0.5044E-01  0.3189E-01  0.1722E+01
     -5.469  0.5177E-01  0.3113E-01  0.1672E+01
     -5.383  0.4461E-01  0.3511E-01  0.1838E+01
     -5.296  0.3379E-01  0.3853E-01  0.1794E+01
     -5.210  0.2965E-01  0.3532E-01  0.1704E+01
     -5.123  0.2555E-01  0.3329E-01  0.1810E+01
     -5.037  0.3321E-01  0.3323E-01  0.1978E+01
     -4.950  0.4752E-01  0.3622E-01  0.1922E+01
     -4.863  0.5604E-01  0.3904E-01  0.2209E+01
     -4.777  0.4926E-01  0.4108E-01  0.2959E+01
     -4.690  0.5849E-01  0.4506E-01  0.3012E+01
     -4.604  0.6311E-01  0.4156E-01  0.2623E+01
     -4.517  0.5815E-01  0.3748E-01  0.2574E+01
     -4.430  0.5443E-01  0.3975E-01  0.2835E+01
     -4.344  0.4267E-01  0.4836E-01  0.2867E+01
     -4.257  0.5218E-01  0.5232E-01  0.2658E+01
     -4.171  0.8633E-01  0.5212E-01  0.2439E+01
     -4.084  0.9051E-01  0.5676E-01  0.2143E+01
     -3.998  0.7984E-01  0.5732E-01  0.2126E+01
     -3.911  0.7891E-01  0.5875E-01  0.2353E+01
     -3.824  0.5678E-01  0.6319E-01  0.2459E+01
     -3.738  0.3332E-01  0.5799E-01  0.2403E+01
     -3.651  0.2729E-01  0.5315E-01  0.2143E+01
     -3.565  0.3556E-01  0.5041E-01  0.1862E+01
     -3.478  0.3846E-01  0.3955E-01  0.1717E+01