  96  96   1   0
  0.3535656E+02  0.1117185E-08  0.1117185E-08  0.3140223E-08  0.0000000E+00
  1.000000000000000E-004
  CAR 
 unknown system                          
     15.13547925     -8.70964312  301     -1.04167875      1.00000000
     -8.710  0.0000E+00  0.0000E+00
     -8.630  0.0000E+00  0.0000E+00
     -8.551  0.0000E+00  0.0000E+00
     -8.471 -0.3417E-30 -0.2716E-31
     -8.392 -0.1130E-24 -0.8982E-26
     -8.312 -0.1045E-19 -0.8305E-21
     -8.233 -0.2694E-15 -0.2141E-16
     -8.153 -0.1861E-11 -0.1480E-12
     -8.074 -0.3631E-08 -0.2887E-09
     -7.994 -0.1918E-05 -0.1527E-06
     -7.915 -0.2663E-03 -0.2132E-04
     -7.835 -0.9011E-02 -0.7375E-03
     -7.756 -0.5618E-01 -0.5203E-02
     -7.676  0.9161E-01  0.2079E-02
     -7.597  0.1004E+01  0.8191E-01
     -7.517  0.4386E+01  0.4305E+00
     -7.438  0.4965E+01  0.8251E+00
     -7.358  0.7931E+00  0.8881E+00
     -7.279  0.3779E+01  0.1188E+01
     -7.199  0.7106E+01  0.1753E+01
     -7.120  0.6270E+01  0.2252E+01
     -7.040  0.1917E+01  0.2404E+01
     -6.961  0.1012E+01  0.2485E+01
     -6.882  0.9282E+01  0.3222E+01
     -6.802  0.1475E+02  0.4395E+01
     -6.723  0.6574E+01  0.4917E+01
     -6.643  0.1051E+02  0.5753E+01
     -6.564  0.1172E+02  0.6685E+01
     -6.484  0.3705E+01  0.6979E+01
     -6.405  0.2950E-01  0.6981E+01
     -6.325  0.1282E+02  0.8001E+01
     -6.246  0.2704E+02  0.1015E+02
     -6.166  0.1717E+02  0.1152E+02
     -6.087  0.1382E+02  0.1261E+02
     -6.007  0.6072E+01  0.1310E+02
     -5.928  0.1255E+02  0.1409E+02
     -5.848  0.5961E+02  0.1883E+02
     -5.769  0.9919E+02  0.2672E+02
     -5.689  0.9020E+02  0.3389E+02
     -5.610  0.9116E+02  0.4113E+02
     -5.530  0.1398E+03  0.5224E+02
     -5.451  0.1654E+03  0.6539E+02
     -5.371  0.1573E+03  0.7789E+02
     -5.292  0.1955E+03  0.9343E+02
     -5.212  0.1967E+03  0.1091E+03
     -5.133  0.2086E+03  0.1256E+03
     -5.053  0.2155E+03  0.1428E+03
     -4.974  0.1971E+03  0.1584E+03
     -4.894  0.1999E+03  0.1743E+03
     -4.815  0.1925E+03  0.1896E+03
     -4.735  0.1668E+03  0.2029E+03
     -4.656  0.1500E+03  0.2148E+03
     -4.576  0.1302E+03  0.2252E+03
     -4.497  0.1376E+03  0.2361E+03
     -4.418  0.1777E+03  0.2502E+03
     -4.338  0.1817E+03  0.2647E+03
     -4.259  0.1347E+03  0.2754E+03
     -4.179  0.1460E+03  0.2870E+03
     -4.100  0.1896E+03  0.3020E+03
     -4.020  0.1645E+03  0.3151E+03
     -3.941  0.1584E+03  0.3277E+03
     -3.861  0.1559E+03  0.3401E+03
     -3.782  0.1485E+03  0.3519E+03
     -3.702  0.1811E+03  0.3663E+03
     -3.623  0.2293E+03  0.3845E+03
     -3.543  0.2580E+03  0.4050E+03
     -3.464  0.2563E+03  0.4254E+03
     -3.384  0.2723E+03  0.4470E+03
     -3.305  0.2799E+03  0.4693E+03
     -3.225  0.2564E+03  0.4897E+03
     -3.146  0.2419E+03  0.5089E+03
     -3.066  0.2320E+03  0.5273E+03
     -2.987  0.2684E+03  0.5487E+03
     -2.907  0.2453E+03  0.5682E+03
     -2.828  0.1570E+03  0.5807E+03
     -2.748  0.1465E+03  0.5923E+03
     -2.669  0.1819E+03  0.6068E+03
     -2.589  0.1539E+03  0.6190E+03
     -2.510  0.1742E+03  0.6328E+03
     -2.430  0.2608E+03  0.6536E+03
     -2.351  0.2536E+03  0.6737E+03
     -2.271  0.1661E+03  0.6869E+03
     -2.192  0.1755E+03  0.7009E+03
     -2.112  0.2108E+03  0.7176E+03
     -2.033  0.2071E+03  0.7341E+03
     -1.954  0.1914E+03  0.7493E+03
     -1.874  0.2137E+03  0.7663E+03
     -1.795  0.2310E+03  0.7846E+03
     -1.715  0.2194E+03  0.8021E+03
     -1.636  0.1530E+03  0.8142E+03
     -1.556  0.1639E+03  0.8273E+03
     -1.477  0.2250E+03  0.8452E+03
     -1.397  0.2433E+03  0.8645E+03
     -1.318  0.1969E+03  0.8801E+03
     -1.238  0.2211E+03  0.8977E+03
     -1.159  0.2947E+03  0.9211E+03
     -1.079  0.3416E+03  0.9483E+03
     -1.000  0.2804E+03  0.9706E+03
     -0.920  0.1824E+03  0.9851E+03
     -0.841  0.1448E+03  0.9966E+03
     -0.761  0.9719E+02  0.1004E+04
     -0.682  0.4193E+02  0.1008E+04
     -0.602  0.1046E+02  0.1008E+04
     -0.523  0.6259E+01  0.1009E+04
     -0.443  0.3007E+02  0.1011E+04
     -0.364  0.3637E+02  0.1014E+04
     -0.284  0.2755E+02  0.1016E+04
     -0.205  0.1604E+02  0.1018E+04
     -0.125  0.1297E+02  0.1019E+04
     -0.046  0.1281E+02  0.1020E+04
      0.034  0.2654E+02  0.1022E+04
      0.113  0.3479E+02  0.1025E+04
      0.193  0.2633E+02  0.1027E+04
      0.272  0.4072E+02  0.1030E+04
      0.352  0.4060E+02  0.1033E+04
      0.431  0.1235E+02  0.1034E+04
      0.510  0.1691E+01  0.1034E+04
      0.590  0.1305E+01  0.1034E+04
      0.669  0.2148E+02  0.1036E+04
      0.749  0.5529E+02  0.1041E+04
      0.828  0.6921E+02  0.1046E+04
      0.908  0.3465E+02  0.1049E+04
      0.987  0.1117E+02  0.1050E+04
      1.067  0.2150E+02  0.1051E+04
      1.146  0.2332E+02  0.1053E+04
      1.226  0.1636E+02  0.1055E+04
      1.305  0.1290E+02  0.1056E+04
      1.385  0.5390E+00  0.1056E+04
      1.464  0.2106E+02  0.1057E+04
      1.544  0.6722E+02  0.1063E+04
      1.623  0.5393E+02  0.1067E+04
      1.703  0.2231E+02  0.1069E+04
      1.782  0.2834E+02  0.1071E+04
      1.862  0.3710E+02  0.1074E+04
      1.941  0.2456E+02  0.1076E+04
      2.021  0.2400E+02  0.1078E+04
      2.100  0.2212E+02  0.1079E+04
      2.180  0.8355E+01  0.1080E+04
      2.259  0.1687E+02  0.1082E+04
      2.339  0.3129E+02  0.1084E+04
      2.418  0.4756E+02  0.1088E+04
      2.498  0.4599E+02  0.1091E+04
      2.577  0.2521E+02  0.1093E+04
      2.657  0.1399E+02  0.1095E+04
      2.736  0.2174E+02  0.1096E+04
      2.815  0.2395E+02  0.1098E+04
      2.895  0.2354E+02  0.1100E+04
      2.974  0.2590E+02  0.1102E+04
      3.054  0.3124E+02  0.1105E+04
      3.133  0.4666E+02  0.1108E+04
      3.213  0.4298E+02  0.1112E+04
      3.292  0.4052E+02  0.1115E+04
      3.372  0.1831E+02  0.1116E+04
      3.451  0.5955E+01  0.1117E+04
      3.531  0.2479E+02  0.1119E+04
      3.610  0.4130E+02  0.1122E+04
      3.690  0.1877E+02  0.1124E+04
      3.769  0.5281E+01  0.1124E+04
      3.849  0.1758E+02  0.1125E+04
      3.928  0.3353E+02  0.1128E+04
      4.008  0.3780E+02  0.1131E+04
      4.087  0.1792E+02  0.1133E+04
      4.167  0.1994E+02  0.1134E+04
      4.246  0.2205E+02  0.1136E+04
      4.326  0.2522E+02  0.1138E+04
      4.405  0.4327E+02  0.1141E+04
      4.485  0.5768E+02  0.1146E+04
      4.564  0.2440E+02  0.1148E+04
      4.644  0.2242E+02  0.1150E+04
      4.723  0.3106E+02  0.1152E+04
      4.803  0.4618E+02  0.1156E+04
      4.882  0.5372E+02  0.1160E+04
      4.962  0.2516E+02  0.1162E+04
      5.041  0.2441E+02  0.1164E+04
      5.121  0.2721E+02  0.1166E+04
      5.200  0.8014E+01  0.1167E+04
      5.279  0.4863E+01  0.1167E+04
      5.359  0.2144E+02  0.1169E+04
      5.438  0.5134E+02  0.1173E+04
      5.518  0.5482E+02  0.1177E+04
      5.597  0.2591E+02  0.1179E+04
      5.677  0.3391E+02  0.1182E+04
      5.756  0.4302E+02  0.1185E+04
      5.836  0.1114E+02  0.1186E+04
      5.915  0.7060E+01  0.1187E+04
      5.995  0.4660E+02  0.1191E+04
      6.074  0.8146E+02  0.1197E+04
      6.154  0.7051E+02  0.1203E+04
      6.233  0.6297E+02  0.1208E+04
      6.313  0.4348E+02  0.1211E+04
      6.392  0.3538E+02  0.1214E+04
      6.472  0.6603E+02  0.1219E+04
      6.551  0.7461E+02  0.1225E+04
      6.631  0.6950E+02  0.1231E+04
      6.710  0.5837E+02  0.1235E+04
      6.790  0.3959E+02  0.1238E+04
      6.869  0.5516E+02  0.1243E+04
      6.949  0.7340E+02  0.1249E+04
      7.028  0.5357E+02  0.1253E+04
      7.108  0.4122E+02  0.1256E+04
      7.187  0.6975E+02  0.1262E+04
      7.267  0.7379E+02  0.1268E+04
      7.346  0.5691E+02  0.1272E+04
      7.426  0.4827E+02  0.1276E+04
      7.505  0.5187E+02  0.1280E+04
      7.585  0.6459E+02  0.1285E+04
      7.664  0.4522E+02  0.1289E+04
      7.743  0.6400E+02  0.1294E+04
      7.823  0.8319E+02  0.1301E+04
      7.902  0.5007E+02  0.1304E+04
      7.982  0.4095E+02  0.1308E+04
      8.061  0.3825E+02  0.1311E+04
      8.141  0.2702E+02  0.1313E+04
      8.220  0.3783E+02  0.1316E+04
      8.300  0.5973E+02  0.1321E+04
      8.379  0.8602E+02  0.1328E+04
      8.459  0.6399E+02  0.1333E+04
      8.538  0.4557E+02  0.1336E+04
      8.618  0.3933E+02  0.1339E+04
      8.697  0.4916E+02  0.1343E+04
      8.777  0.5435E+02  0.1348E+04
      8.856  0.6257E+02  0.1353E+04
      8.936  0.6641E+02  0.1358E+04
      9.015  0.7534E+02  0.1364E+04
      9.095  0.8478E+02  0.1371E+04
      9.174  0.6065E+02  0.1375E+04
      9.254  0.5865E+02  0.1380E+04
      9.333  0.6885E+02  0.1386E+04
      9.413  0.4608E+02  0.1389E+04
      9.492  0.5508E+02  0.1394E+04
      9.572  0.7040E+02  0.1399E+04
      9.651  0.6924E+02  0.1405E+04
      9.731  0.6346E+02  0.1410E+04
      9.810  0.5038E+02  0.1414E+04
      9.890  0.3818E+02  0.1417E+04
      9.969  0.6940E+02  0.1422E+04
     10.049  0.1620E+03  0.1435E+04
     10.128  0.1251E+03  0.1445E+04
     10.207  0.7708E+02  0.1451E+04
     10.287  0.6991E+02  0.1457E+04
     10.366  0.4108E+02  0.1460E+04
     10.446  0.5832E+02  0.1465E+04
     10.525  0.6354E+02  0.1470E+04
     10.605  0.5878E+02  0.1474E+04
     10.684  0.6440E+02  0.1480E+04
     10.764  0.7466E+02  0.1485E+04
     10.843  0.8163E+02  0.1492E+04
     10.923  0.7226E+02  0.1498E+04
     11.002  0.8229E+02  0.1504E+04
     11.082  0.1108E+03  0.1513E+04
     11.161  0.1010E+03  0.1521E+04
     11.241  0.7692E+02  0.1527E+04
     11.320  0.7662E+02  0.1533E+04
     11.400  0.8727E+02  0.1540E+04
     11.479  0.9353E+02  0.1548E+04
     11.559  0.8164E+02  0.1554E+04
     11.638  0.6807E+02  0.1560E+04
     11.718  0.7001E+02  0.1565E+04
     11.797  0.9211E+02  0.1572E+04
     11.877  0.1089E+03  0.1581E+04
     11.956  0.1124E+03  0.1590E+04
     12.036  0.6759E+02  0.1595E+04
     12.115  0.4894E+02  0.1599E+04
     12.195  0.8076E+02  0.1606E+04
     12.274  0.8665E+02  0.1613E+04
     12.354  0.7861E+02  0.1619E+04
     12.433  0.8841E+02  0.1626E+04
     12.513  0.8089E+02  0.1632E+04
     12.592  0.7960E+02  0.1639E+04
     12.671  0.9296E+02  0.1646E+04
     12.751  0.9675E+02  0.1654E+04
     12.830  0.9516E+02  0.1661E+04
     12.910  0.8721E+02  0.1668E+04
     12.989  0.9599E+02  0.1676E+04
     13.069  0.8939E+02  0.1683E+04
     13.148  0.9348E+02  0.1690E+04
     13.228  0.9912E+02  0.1698E+04
     13.307  0.1008E+03  0.1706E+04
     13.387  0.1014E+03  0.1714E+04
     13.466  0.6875E+02  0.1720E+04
     13.546  0.5439E+02  0.1724E+04
     13.625  0.5106E+02  0.1728E+04
     13.705  0.4449E+02  0.1732E+04
     13.784  0.4922E+02  0.1736E+04
     13.864  0.4048E+02  0.1739E+04
     13.943  0.1281E+02  0.1740E+04
     14.023  0.1412E+01  0.1740E+04
     14.102  0.8326E+00  0.1740E+04
     14.182  0.1581E+00  0.1740E+04
     14.261 -0.6526E-01  0.1740E+04
     14.341 -0.9725E-02  0.1740E+04
     14.420 -0.2749E-03  0.1740E+04
     14.500 -0.1943E-05  0.1740E+04
     14.579 -0.3650E-08  0.1740E+04
     14.659 -0.1865E-11  0.1740E+04
     14.738 -0.3492E-15  0.1740E+04
     14.818  0.0000E+00  0.1740E+04
     14.897  0.0000E+00  0.1740E+04
     14.977  0.0000E+00  0.1740E+04
     15.056  0.0000E+00  0.1740E+04
     15.135  0.0000E+00  0.1740E+04
     15.13547925     -8.70964312  301     -1.04167875      1.00000000
     -8.710  0.0000E+00  0.0000E+00  0.0000E+00
     -8.630  0.0000E+00  0.0000E+00  0.0000E+00
     -8.551  0.0000E+00  0.0000E+00  0.0000E+00
     -8.471 -0.3450E-33 -0.3649E-34 -0.6709E-37
     -8.392 -0.1141E-27 -0.1207E-28 -0.2218E-31
     -8.312 -0.1055E-22 -0.1116E-23 -0.2051E-26
     -8.233 -0.2720E-18 -0.2877E-19 -0.5289E-22
     -8.153 -0.1879E-14 -0.1988E-15 -0.3655E-18
     -8.074 -0.3666E-11 -0.3877E-12 -0.7143E-15
     -7.994 -0.1936E-08 -0.2048E-09 -0.3824E-12
     -7.915 -0.2688E-06 -0.2844E-07 -0.5836E-10
     -7.835 -0.9094E-05 -0.9638E-06 -0.3443E-08
     -7.756 -0.5651E-04 -0.6108E-05 -0.1283E-06
     -7.676  0.9571E-04  0.8154E-05 -0.1743E-05
     -7.597  0.1013E-02  0.1077E-03  0.7325E-06
     -7.517  0.4351E-02  0.5074E-03  0.4299E-04
     -7.438  0.4921E-02  0.5769E-03  0.4998E-04
     -7.358  0.7826E-03  0.9390E-04  0.1010E-04
     -7.279  0.3572E-02  0.5137E-03  0.1495E-03
     -7.199  0.6627E-02  0.9780E-03  0.3181E-03
     -7.120  0.5644E-02  0.8873E-03  0.3492E-03
     -7.040  0.2377E-02  0.2876E-03  0.9613E-04
     -6.961  0.5572E-02  0.3543E-03  0.3091E-05
     -6.882  0.2205E-01  0.2176E-02  0.7642E-03
     -6.802  0.2112E-01  0.2803E-02  0.1564E-02
     -6.723  0.8933E-02  0.1346E-02  0.8166E-03
     -6.643  0.2345E-01  0.2967E-02  0.1565E-02
     -6.564  0.2771E-01  0.3571E-02  0.1847E-02
     -6.484  0.1244E-01  0.1484E-02  0.5094E-03
     -6.405 -0.1271E-02 -0.1281E-03 -0.4338E-04
     -6.325  0.1520E-01  0.3116E-02  0.4040E-02
     -6.246  0.4840E-01  0.8077E-02  0.8961E-02
     -6.166  0.4551E-01  0.5209E-02  0.6738E-02
     -6.087  0.3414E-01  0.4131E-02  0.6800E-02
     -6.007  0.1357E-01  0.1931E-02  0.2189E-02
     -5.928  0.2457E-01  0.1804E-02  0.7558E-02
     -5.848  0.6242E-01  0.1101E-01  0.4624E-01
     -5.769  0.6933E-01  0.1695E-01  0.8548E-01
     -5.689  0.4137E-01  0.9646E-02  0.1040E+00
     -5.610  0.8155E-01  0.8183E-02  0.1692E+00
     -5.530  0.1046E+00  0.1658E-01  0.2524E+00
     -5.451  0.9206E-01  0.2381E-01  0.3008E+00
     -5.371  0.1158E+00  0.2200E-01  0.3660E+00
     -5.292  0.1330E+00  0.2947E-01  0.4380E+00
     -5.212  0.1216E+00  0.3318E-01  0.5629E+00
     -5.133  0.1665E+00  0.4180E-01  0.9690E+00
     -5.053  0.1980E+00  0.4608E-01  0.1209E+01
     -4.974  0.1584E+00  0.4076E-01  0.1245E+01
     -4.894  0.1539E+00  0.4856E-01  0.1364E+01
     -4.815  0.1471E+00  0.5268E-01  0.1219E+01
     -4.735  0.1239E+00  0.4249E-01  0.1079E+01
     -4.656  0.1002E+00  0.3574E-01  0.9603E+00
     -4.576  0.5709E-01  0.2589E-01  0.8513E+00
     -4.497  0.3568E-01  0.2866E-01  0.1119E+01
     -4.418  0.4605E-01  0.4556E-01  0.1548E+01
     -4.338  0.3577E-01  0.4275E-01  0.1406E+01
     -4.259  0.1392E-01  0.2750E-01  0.9634E+00
     -4.179  0.2073E-01  0.2779E-01  0.1093E+01
     -4.100  0.3350E-01  0.2866E-01  0.1358E+01
     -4.020  0.1865E-01  0.1626E-01  0.1119E+01
     -3.941  0.1823E-01  0.1807E-01  0.1134E+01
     -3.861  0.2630E-01  0.2234E-01  0.1266E+01
     -3.782  0.2580E-01  0.1742E-01  0.1153E+01
     -3.702  0.2348E-01  0.1732E-01  0.1308E+01
     -3.623  0.2332E-01  0.1962E-01  0.1633E+01
     -3.543  0.2210E-01  0.2276E-01  0.1784E+01
     -3.464  0.4545E-01  0.3712E-01  0.1979E+01
     -3.384  0.6141E-01  0.4479E-01  0.2285E+01
     -3.305  0.3923E-01  0.3338E-01  0.2163E+01
     -3.225  0.2620E-01  0.2337E-01  0.2309E+01
     -3.146  0.3044E-01  0.3032E-01  0.2632E+01
     -3.066  0.3968E-01  0.4579E-01  0.2644E+01
     -2.987  0.5717E-01  0.6443E-01  0.3067E+01
     -2.907  0.6165E-01  0.6144E-01  0.2666E+01
     -2.828  0.5447E-01  0.6012E-01  0.1777E+01
     -2.748  0.4822E-01  0.5512E-01  0.1619E+01
     -2.669  0.4571E-01  0.5324E-01  0.1994E+01
     -2.589  0.2964E-01  0.3998E-01  0.1712E+01
     -2.510  0.2363E-01  0.3524E-01  0.1795E+01
     -2.430  0.2562E-01  0.4673E-01  0.2494E+01
     -2.351  0.2202E-01  0.5280E-01  0.2462E+01
     -2.271  0.3967E-01  0.5675E-01  0.1710E+01
     -2.192  0.5957E-01  0.4927E-01  0.1831E+01
     -2.112  0.5173E-01  0.3783E-01  0.2339E+01
     -2.033  0.2982E-01  0.3512E-01  0.2380E+01
     -1.954  0.1780E-01  0.2549E-01  0.2279E+01
     -1.874  0.1923E-01  0.3225E-01  0.2478E+01
     -1.795  0.3092E-01  0.5605E-01  0.2624E+01
     -1.715  0.4361E-01  0.4837E-01  0.2502E+01
     -1.636  0.3380E-01  0.2410E-01  0.1713E+01
     -1.556  0.2263E-01  0.2200E-01  0.1957E+01
     -1.477  0.2714E-01  0.3117E-01  0.2634E+01
     -1.397  0.3269E-01  0.3523E-01  0.2785E+01
     -1.318  0.2353E-01  0.2444E-01  0.2282E+01
     -1.238  0.2331E-01  0.2052E-01  0.2507E+01
     -1.159  0.3458E-01  0.2707E-01  0.2961E+01
     -1.079  0.6247E-01  0.3919E-01  0.2915E+01
     -1.000  0.4008E-01  0.2678E-01  0.2280E+01
     -0.920  0.1628E-01  0.1477E-01  0.1583E+01
     -0.841  0.2719E-01  0.1597E-01  0.1288E+01
     -0.761  0.2526E-01  0.1726E-01  0.9350E+00
     -0.682  0.1727E-01  0.1609E-01  0.4613E+00
     -0.602  0.6989E-02  0.9536E-02  0.9562E-01
     -0.523  0.1176E-01  0.6632E-02  0.1169E-01
     -0.443  0.5762E-01  0.3093E-01  0.1531E+00
     -0.364  0.7365E-01  0.4502E-01  0.2272E+00
     -0.284  0.5984E-01  0.4012E-01  0.1722E+00
     -0.205  0.2560E-01  0.2288E-01  0.7211E-01
     -0.125  0.4434E-02  0.1513E-01  0.6078E-01
     -0.046  0.4953E-02  0.1934E-01  0.5365E-01
      0.034  0.3579E-01  0.2366E-01  0.9986E-01
      0.113  0.4920E-01  0.2281E-01  0.1213E+00
      0.193  0.2456E-01  0.1695E-01  0.9221E-01
      0.272  0.4353E-01  0.5252E-01  0.2054E+00
      0.352  0.4157E-01  0.5970E-01  0.2315E+00
      0.431  0.1174E-01  0.1757E-01  0.6511E-01
      0.510  0.1055E-02  0.1176E-02  0.3113E-02
      0.590 -0.1520E-02  0.4638E-02 -0.4943E-04
      0.669  0.3307E-01  0.5765E-01  0.8735E-01
      0.749  0.1106E+00  0.1179E+00  0.2532E+00
      0.828  0.1162E+00  0.1255E+00  0.2999E+00
      0.908  0.3279E-01  0.6273E-01  0.1272E+00
      0.987  0.1094E-01  0.2961E-01  0.2466E-01
      1.067  0.1878E-01  0.4536E-01  0.5880E-01
      1.146  0.1586E-01  0.3188E-01  0.6798E-01
      1.226  0.7500E-02  0.7996E-02  0.3794E-01
      1.305  0.3002E-02  0.1704E-02  0.2182E-01
      1.385 -0.1905E-03 -0.4168E-02 -0.2884E-02
      1.464  0.2234E-01  0.3765E-01  0.8532E-01
      1.544  0.5532E-01  0.1410E+00  0.2653E+00
      1.623  0.4817E-01  0.1259E+00  0.1967E+00
      1.703  0.4198E-01  0.6701E-01  0.6002E-01
      1.782  0.5181E-01  0.7938E-01  0.7854E-01
      1.862  0.4090E-01  0.8949E-01  0.1085E+00
      1.941  0.2203E-01  0.6179E-01  0.8330E-01
      2.021  0.2808E-01  0.7014E-01  0.8509E-01
      2.100  0.3722E-01  0.6223E-01  0.1057E+00
      2.180  0.1872E-01  0.2145E-01  0.5168E-01
      2.259  0.1795E-01  0.3397E-01  0.5152E-01
      2.339  0.2822E-01  0.7138E-01  0.9203E-01
      2.418  0.2729E-01  0.1231E+00  0.1260E+00
      2.498  0.1468E-01  0.9906E-01  0.1000E+00
      2.577  0.7824E-02  0.2673E-01  0.4081E-01
      2.657  0.1058E-01  0.2800E-01  0.2501E-01
      2.736  0.1712E-01  0.7761E-01  0.6104E-01
      2.815  0.1802E-01  0.7000E-01  0.7467E-01
      2.895  0.1694E-01  0.4902E-01  0.7572E-01
      2.974  0.2865E-01  0.6413E-01  0.8764E-01
      3.054  0.3335E-01  0.9662E-01  0.9335E-01
      3.133  0.3372E-01  0.1466E+00  0.1148E+00
      3.213  0.3445E-01  0.1152E+00  0.1036E+00
      3.292  0.2918E-01  0.1028E+00  0.1167E+00
      3.372  0.9420E-02  0.5279E-01  0.5781E-01
      3.451  0.1718E-02  0.1587E-01  0.1620E-01
      3.531  0.2198E-01  0.7069E-01  0.8516E-01
      3.610  0.2857E-01  0.1008E+00  0.1193E+00
      3.690  0.6996E-02  0.3517E-01  0.3514E-01
      3.769  0.1482E-02  0.4184E-02  0.1030E-02
      3.849  0.7165E-02  0.4926E-01  0.3178E-01
      3.928  0.1138E-01  0.9831E-01  0.8541E-01
      4.008  0.1311E-01  0.7662E-01  0.8925E-01
      4.087  0.5616E-02  0.2585E-01  0.3448E-01
      4.167  0.3190E-02  0.2767E-01  0.2806E-01
      4.246  0.6927E-02  0.3468E-01  0.3189E-01
      4.326  0.1343E-01  0.4474E-01  0.4179E-01
      4.405  0.2627E-01  0.8649E-01  0.8649E-01
      4.485  0.4073E-01  0.1258E+00  0.1277E+00
      4.564  0.1495E-01  0.4552E-01  0.4676E-01
      4.644  0.3703E-02  0.4847E-01  0.4314E-01
      4.723  0.4639E-02  0.5408E-01  0.4217E-01
      4.803  0.1459E-01  0.4436E-01  0.4117E-01
      4.882  0.2030E-01  0.6156E-01  0.6944E-01
      4.962  0.7628E-02  0.3224E-01  0.3722E-01
      5.041  0.1577E-01  0.3564E-01  0.4225E-01
      5.121  0.2040E-01  0.5037E-01  0.5675E-01
      5.200  0.4488E-02  0.1098E-01  0.1199E-01
      5.279  0.7737E-03 -0.2416E-02 -0.1482E-02
      5.359  0.6811E-02  0.3988E-02  0.8508E-02
      5.438  0.1680E-01  0.4217E-01  0.4416E-01
      5.518  0.2324E-01  0.8208E-01  0.7656E-01
      5.597  0.1902E-01  0.4328E-01  0.4571E-01
      5.677  0.1399E-01  0.3145E-01  0.3374E-01
      5.756  0.1211E-01  0.4665E-01  0.4257E-01
      5.836  0.2978E-02  0.1218E-01  0.1133E-01
      5.915  0.8553E-03  0.3680E-02  0.4228E-02
      5.995  0.3568E-01  0.3790E-01  0.5726E-01
      6.074  0.1161E+00  0.5586E-01  0.1194E+00
      6.154  0.1465E+00  0.4985E-01  0.1239E+00
      6.233  0.1864E+00  0.5627E-01  0.1449E+00
      6.313  0.1390E+00  0.4496E-01  0.1075E+00
      6.392  0.5064E-01  0.4323E-01  0.5203E-01
      6.472  0.9676E-01  0.9450E-01  0.1057E+00
      6.551  0.1832E+00  0.1119E+00  0.1622E+00
      6.631  0.1579E+00  0.8749E-01  0.1314E+00
      6.710  0.6019E-01  0.4527E-01  0.5648E-01
      6.790  0.3930E-01  0.2751E-01  0.3652E-01
      6.869  0.1071E+00  0.6391E-01  0.7780E-01
      6.949  0.1112E+00  0.8312E-01  0.8999E-01
      7.028  0.5933E-01  0.6831E-01  0.7708E-01
      7.108  0.5472E-01  0.6475E-01  0.7027E-01
      7.187  0.7706E-01  0.8793E-01  0.8105E-01
      7.267  0.6539E-01  0.8371E-01  0.6776E-01
      7.346  0.5422E-01  0.7657E-01  0.5372E-01
      7.426  0.4129E-01  0.7038E-01  0.5391E-01
      7.505  0.5983E-01  0.9977E-01  0.8066E-01
      7.585  0.6472E-01  0.1181E+00  0.8974E-01
      7.664  0.3643E-01  0.7024E-01  0.5205E-01
      7.743  0.4656E-01  0.8195E-01  0.5962E-01
      7.823  0.4781E-01  0.9295E-01  0.6329E-01
      7.902  0.3352E-01  0.5807E-01  0.4289E-01
      7.982  0.4250E-01  0.5554E-01  0.4375E-01
      8.061  0.2875E-01  0.4810E-01  0.3289E-01
      8.141  0.2562E-01  0.4982E-01  0.3543E-01
      8.220  0.6001E-01  0.9138E-01  0.6510E-01
      8.300  0.7732E-01  0.9947E-01  0.7731E-01
      8.379  0.9215E-01  0.1012E+00  0.8507E-01
      8.459  0.5267E-01  0.6715E-01  0.5639E-01
      8.538  0.3844E-01  0.5128E-01  0.4375E-01
      8.618  0.3644E-01  0.4867E-01  0.3786E-01
      8.697  0.5398E-01  0.7652E-01  0.6122E-01
      8.777  0.4895E-01  0.7664E-01  0.6375E-01
      8.856  0.6590E-01  0.6674E-01  0.6908E-01
      8.936  0.8080E-01  0.6927E-01  0.7949E-01
      9.015  0.8075E-01  0.1012E+00  0.9839E-01
      9.095  0.6300E-01  0.1144E+00  0.8819E-01
      9.174  0.4147E-01  0.5943E-01  0.5195E-01
      9.254  0.6911E-01  0.5559E-01  0.7848E-01
      9.333  0.8856E-01  0.7208E-01  0.9106E-01
      9.413  0.4455E-01  0.4700E-01  0.4901E-01
      9.492  0.5573E-01  0.4906E-01  0.5971E-01
      9.572  0.8979E-01  0.8307E-01  0.8984E-01
      9.651  0.7363E-01  0.7991E-01  0.8221E-01
      9.731  0.3728E-01  0.6088E-01  0.5812E-01
      9.810  0.2992E-01  0.4699E-01  0.4587E-01
      9.890  0.4130E-01  0.4181E-01  0.4017E-01
      9.969  0.6682E-01  0.8146E-01  0.7256E-01
     10.049  0.1393E+00  0.1854E+00  0.1780E+00
     10.128  0.1183E+00  0.1509E+00  0.1424E+00
     10.207  0.6881E-01  0.1131E+00  0.8405E-01
     10.287  0.6036E-01  0.1023E+00  0.7516E-01
     10.366  0.3031E-01  0.5081E-01  0.4373E-01
     10.446  0.3669E-01  0.5530E-01  0.4076E-01
     10.525  0.3755E-01  0.6248E-01  0.5240E-01
     10.605  0.2083E-01  0.5761E-01  0.6539E-01
     10.684  0.4253E-01  0.8900E-01  0.7713E-01
     10.764  0.9121E-01  0.1258E+00  0.8177E-01
     10.843  0.7453E-01  0.1133E+00  0.7739E-01
     10.923  0.4473E-01  0.8393E-01  0.6359E-01
     11.002  0.8128E-01  0.1077E+00  0.8922E-01
     11.082  0.9403E-01  0.1464E+00  0.1185E+00
     11.161  0.7677E-01  0.1204E+00  0.9789E-01
     11.241  0.5421E-01  0.8451E-01  0.7994E-01
     11.320  0.3482E-01  0.1118E+00  0.9783E-01
     11.400  0.3471E-01  0.1125E+00  0.1039E+00
     11.479  0.5141E-01  0.1125E+00  0.9355E-01
     11.559  0.6816E-01  0.1119E+00  0.7346E-01
     11.638  0.5146E-01  0.9216E-01  0.5795E-01
     11.718  0.2145E-01  0.7437E-01  0.6922E-01
     11.797  0.3895E-01  0.1038E+00  0.9287E-01
     11.877  0.9469E-01  0.1561E+00  0.1179E+00
     11.956  0.1048E+00  0.1531E+00  0.1276E+00
     12.036  0.3139E-01  0.8462E-01  0.5851E-01
     12.115  0.1966E-01  0.8340E-01  0.4835E-01
     12.195  0.5467E-01  0.1329E+00  0.8518E-01
     12.274  0.6038E-01  0.1284E+00  0.7187E-01
     12.354  0.5462E-01  0.1071E+00  0.6475E-01
     12.433  0.3482E-01  0.1282E+00  0.9940E-01
     12.513  0.2103E-01  0.1193E+00  0.8562E-01
     12.592  0.2961E-01  0.9277E-01  0.7212E-01
     12.671  0.4021E-01  0.1219E+00  0.9686E-01
     12.751  0.2697E-01  0.1307E+00  0.9453E-01
     12.830  0.2182E-01  0.1264E+00  0.8362E-01
     12.910  0.3819E-01  0.1608E+00  0.8531E-01
     12.989  0.4769E-01  0.1714E+00  0.8384E-01
     13.069  0.4513E-01  0.1439E+00  0.9654E-01
     13.148  0.6618E-01  0.1339E+00  0.1201E+00
     13.228  0.6813E-01  0.1076E+00  0.9589E-01
     13.307  0.4798E-01  0.1191E+00  0.8516E-01
     13.387  0.4165E-01  0.1277E+00  0.1126E+00
     13.466  0.2158E-01  0.8570E-01  0.7915E-01
     13.546  0.1046E-01  0.6817E-01  0.4333E-01
     13.625  0.1967E-01  0.6702E-01  0.3849E-01
     13.705  0.2302E-01  0.9099E-01  0.4890E-01
     13.784  0.1599E-01  0.1207E+00  0.5266E-01
     13.864  0.1386E-01  0.7881E-01  0.4004E-01
     13.943  0.6447E-02  0.1961E-01  0.1500E-01
     14.023  0.1845E-02  0.8004E-03  0.2601E-02
     14.102  0.1374E-02 -0.7084E-04  0.1561E-02
     14.182  0.2280E-03 -0.1797E-04  0.3346E-03
     14.261 -0.7396E-04 -0.4360E-04 -0.1050E-03
     14.341 -0.1124E-04 -0.5155E-05 -0.1692E-04
     14.420 -0.3183E-06 -0.1367E-06 -0.4878E-06
     14.500 -0.2251E-08 -0.9432E-09 -0.3472E-08
     14.579 -0.4229E-11 -0.1755E-11 -0.6539E-11
     14.659 -0.2161E-14 -0.8935E-15 -0.3345E-14
     14.738 -0.4047E-18 -0.1669E-18 -0.6268E-18
     14.818  0.0000E+00  0.0000E+00  0.0000E+00
     14.897  0.0000E+00  0.0000E+00  0.0000E+00
     14.977  0.0000E+00  0.0000E+00  0.0000E+00
     15.056  0.0000E+00  0.0000E+00  0.0000E+00
     15.135  0.0000E+00  0.0000E+00  0.0000E+00
     15.13547925     -8.70964312  301     -1.04167875      1.00000000
     -8.710  0.0000E+00  0.0000E+00  0.0000E+00
     -8.630  0.0000E+00  0.0000E+00  0.0000E+00
     -8.551  0.0000E+00  0.0000E+00  0.0000E+00
     -8.471 -0.3450E-33 -0.3649E-34 -0.6709E-37
     -8.392 -0.1141E-27 -0.1207E-28 -0.2219E-31
     -8.312 -0.1055E-22 -0.1116E-23 -0.2051E-26
     -8.233 -0.2720E-18 -0.2877E-19 -0.5289E-22
     -8.153 -0.1879E-14 -0.1988E-15 -0.3655E-18
     -8.074 -0.3666E-11 -0.3877E-12 -0.7144E-15
     -7.994 -0.1936E-08 -0.2048E-09 -0.3825E-12
     -7.915 -0.2688E-06 -0.2844E-07 -0.5837E-10
     -7.835 -0.9094E-05 -0.9638E-06 -0.3444E-08
     -7.756 -0.5651E-04 -0.6108E-05 -0.1283E-06
     -7.676  0.9571E-04  0.8154E-05 -0.1743E-05
     -7.597  0.1013E-02  0.1077E-03  0.7325E-06
     -7.517  0.4351E-02  0.5074E-03  0.4299E-04
     -7.438  0.4921E-02  0.5769E-03  0.4998E-04
     -7.358  0.7825E-03  0.9390E-04  0.1010E-04
     -7.279  0.3572E-02  0.5137E-03  0.1495E-03
     -7.199  0.6627E-02  0.9780E-03  0.3181E-03
     -7.120  0.5644E-02  0.8873E-03  0.3492E-03
     -7.040  0.2377E-02  0.2876E-03  0.9614E-04
     -6.961  0.5572E-02  0.3543E-03  0.3088E-05
     -6.882  0.2205E-01  0.2176E-02  0.7642E-03
     -6.802  0.2112E-01  0.2803E-02  0.1564E-02
     -6.723  0.8933E-02  0.1346E-02  0.8166E-03
     -6.643  0.2344E-01  0.2967E-02  0.1565E-02
     -6.564  0.2771E-01  0.3571E-02  0.1847E-02
     -6.484  0.1244E-01  0.1484E-02  0.5094E-03
     -6.405 -0.1271E-02 -0.1281E-03 -0.4337E-04
     -6.325  0.1520E-01  0.3116E-02  0.4040E-02
     -6.246  0.4840E-01  0.8076E-02  0.8961E-02
     -6.166  0.4551E-01  0.5209E-02  0.6738E-02
     -6.087  0.3414E-01  0.4131E-02  0.6799E-02
     -6.007  0.1357E-01  0.1931E-02  0.2188E-02
     -5.928  0.2457E-01  0.1804E-02  0.7558E-02
     -5.848  0.6242E-01  0.1100E-01  0.4624E-01
     -5.769  0.6933E-01  0.1695E-01  0.8548E-01
     -5.689  0.4137E-01  0.9646E-02  0.1040E+00
     -5.610  0.8155E-01  0.8183E-02  0.1692E+00
     -5.530  0.1046E+00  0.1658E-01  0.2524E+00
     -5.451  0.9206E-01  0.2381E-01  0.3008E+00
     -5.371  0.1158E+00  0.2200E-01  0.3660E+00
     -5.292  0.1330E+00  0.2947E-01  0.4380E+00
     -5.212  0.1216E+00  0.3318E-01  0.5628E+00
     -5.133  0.1664E+00  0.4180E-01  0.9690E+00
     -5.053  0.1980E+00  0.4608E-01  0.1209E+01
     -4.974  0.1584E+00  0.4076E-01  0.1244E+01
     -4.894  0.1539E+00  0.4855E-01  0.1364E+01
     -4.815  0.1471E+00  0.5268E-01  0.1219E+01
     -4.735  0.1239E+00  0.4249E-01  0.1079E+01
     -4.656  0.1002E+00  0.3574E-01  0.9603E+00
     -4.576  0.5709E-01  0.2589E-01  0.8513E+00
     -4.497  0.3568E-01  0.2866E-01  0.1119E+01
     -4.418  0.4605E-01  0.4556E-01  0.1547E+01
     -4.338  0.3577E-01  0.4275E-01  0.1406E+01
     -4.259  0.1392E-01  0.2750E-01  0.9633E+00
     -4.179  0.2073E-01  0.2780E-01  0.1093E+01
     -4.100  0.3350E-01  0.2866E-01  0.1358E+01
     -4.020  0.1865E-01  0.1626E-01  0.1119E+01
     -3.941  0.1823E-01  0.1807E-01  0.1134E+01
     -3.861  0.2630E-01  0.2234E-01  0.1266E+01
     -3.782  0.2580E-01  0.1742E-01  0.1153E+01
     -3.702  0.2348E-01  0.1732E-01  0.1308E+01
     -3.623  0.2332E-01  0.1962E-01  0.1633E+01
     -3.543  0.2210E-01  0.2276E-01  0.1784E+01
     -3.464  0.4546E-01  0.3712E-01  0.1979E+01
     -3.384  0.6141E-01  0.4479E-01  0.2285E+01
     -3.305  0.3923E-01  0.3338E-01  0.2163E+01
     -3.225  0.2620E-01  0.2337E-01  0.2309E+01
     -3.146  0.3044E-01  0.3032E-01  0.2632E+01
     -3.066  0.3968E-01  0.4579E-01  0.2644E+01
     -2.987  0.5717E-01  0.6443E-01  0.3067E+01
     -2.907  0.6165E-01  0.6144E-01  0.2666E+01
     -2.828  0.5447E-01  0.6012E-01  0.1777E+01
     -2.748  0.4822E-01  0.5512E-01  0.1619E+01
     -2.669  0.4571E-01  0.5324E-01  0.1994E+01
     -2.589  0.2964E-01  0.3998E-01  0.1712E+01
     -2.510  0.2363E-01  0.3524E-01  0.1795E+01
     -2.430  0.2562E-01  0.4673E-01  0.2494E+01
     -2.351  0.2203E-01  0.5280E-01  0.2462E+01
     -2.271  0.3967E-01  0.5675E-01  0.1710E+01
     -2.192  0.5957E-01  0.4927E-01  0.1831E+01
     -2.112  0.5173E-01  0.3783E-01  0.2339E+01
     -2.033  0.2982E-01  0.3512E-01  0.2380E+01
     -1.954  0.1780E-01  0.2549E-01  0.2279E+01
     -1.874  0.1923E-01  0.3225E-01  0.2478E+01
     -1.795  0.3092E-01  0.5605E-01  0.2624E+01
     -1.715  0.4361E-01  0.4837E-01  0.2502E+01
     -1.636  0.3380E-01  0.2410E-01  0.1714E+01