  96  96   1   0
  0.3839776E+02  0.1143099E-08  0.1164320E-08  0.3182429E-08  0.0000000E+00
  1.000000000000000E-004
  CAR 
 unknown system                          
     13.85878557     -9.53138032  301     -1.03268566      1.00000000
     -9.531  0.0000E+00  0.0000E+00
     -9.453  0.0000E+00  0.0000E+00
     -9.375  0.0000E+00  0.0000E+00
     -9.297 -0.5092E-29 -0.3970E-30
     -9.220 -0.1038E-23 -0.8090E-25
     -9.142 -0.6202E-19 -0.4835E-20
     -9.064 -0.1084E-14 -0.8454E-16
     -8.986 -0.5320E-11 -0.4149E-12
     -8.908 -0.7737E-08 -0.6037E-09
     -8.830 -0.3197E-05 -0.2499E-06
     -8.752 -0.3649E-03 -0.2870E-04
     -8.674 -0.1080E-01 -0.8708E-03
     -8.596 -0.6870E-01 -0.6227E-02
     -8.518  0.4492E-01 -0.2725E-02
     -8.440  0.1391E+01  0.1057E+00
     -8.362  0.5151E+01  0.5074E+00
     -8.284  0.4240E+01  0.8379E+00
     -8.206  0.1963E+01  0.9910E+00
     -8.128  0.6593E+01  0.1505E+01
     -8.050  0.7267E+01  0.2072E+01
     -7.972  0.4039E+01  0.2387E+01
     -7.894  0.3922E+01  0.2692E+01
     -7.816  0.9832E+01  0.3459E+01
     -7.738  0.1255E+02  0.4437E+01
     -7.660  0.1283E+02  0.5438E+01
     -7.582  0.1309E+02  0.6459E+01
     -7.504  0.5623E+01  0.6897E+01
     -7.426  0.1507E+01  0.7015E+01
     -7.348  0.1593E+02  0.8257E+01
     -7.270  0.2882E+02  0.1050E+02
     -7.192  0.2699E+02  0.1261E+02
     -7.114  0.5295E+02  0.1674E+02
     -7.036  0.1101E+03  0.2532E+02
     -6.958  0.1600E+03  0.3780E+02
     -6.880  0.1952E+03  0.5302E+02
     -6.803  0.2200E+03  0.7017E+02
     -6.725  0.2296E+03  0.8808E+02
     -6.647  0.2295E+03  0.1060E+03
     -6.569  0.2464E+03  0.1252E+03
     -6.491  0.2520E+03  0.1448E+03
     -6.413  0.2449E+03  0.1639E+03
     -6.335  0.2433E+03  0.1829E+03
     -6.257  0.2321E+03  0.2010E+03
     -6.179  0.2271E+03  0.2187E+03
     -6.101  0.2427E+03  0.2376E+03
     -6.023  0.2396E+03  0.2563E+03
     -5.945  0.2323E+03  0.2744E+03
     -5.867  0.2325E+03  0.2925E+03
     -5.789  0.2382E+03  0.3111E+03
     -5.711  0.2543E+03  0.3309E+03
     -5.633  0.2866E+03  0.3533E+03
     -5.555  0.3083E+03  0.3773E+03
     -5.477  0.3184E+03  0.4021E+03
     -5.399  0.3092E+03  0.4262E+03
     -5.321  0.2876E+03  0.4487E+03
     -5.243  0.2859E+03  0.4710E+03
     -5.165  0.2912E+03  0.4937E+03
     -5.087  0.2915E+03  0.5164E+03
     -5.009  0.2921E+03  0.5392E+03
     -4.931  0.2938E+03  0.5621E+03
     -4.853  0.2958E+03  0.5851E+03
     -4.775  0.3021E+03  0.6087E+03
     -4.697  0.3021E+03  0.6322E+03
     -4.619  0.2997E+03  0.6556E+03
     -4.541  0.2950E+03  0.6786E+03
     -4.464  0.2914E+03  0.7013E+03
     -4.386  0.2938E+03  0.7242E+03
     -4.308  0.3008E+03  0.7477E+03
     -4.230  0.2999E+03  0.7711E+03
     -4.152  0.2958E+03  0.7941E+03
     -4.074  0.2663E+03  0.8149E+03
     -3.996  0.2048E+03  0.8309E+03
     -3.918  0.1163E+03  0.8399E+03
     -3.840  0.5114E+02  0.8439E+03
     -3.762  0.3967E+02  0.8470E+03
     -3.684  0.4655E+02  0.8506E+03
     -3.606  0.5228E+02  0.8547E+03
     -3.528  0.6411E+02  0.8597E+03
     -3.450  0.8724E+02  0.8665E+03
     -3.372  0.1121E+03  0.8753E+03
     -3.294  0.1358E+03  0.8858E+03
     -3.216  0.1668E+03  0.8989E+03
     -3.138  0.1986E+03  0.9143E+03
     -3.060  0.2148E+03  0.9311E+03
     -2.982  0.2509E+03  0.9507E+03
     -2.904  0.2987E+03  0.9739E+03
     -2.826  0.2524E+03  0.9936E+03
     -2.748  0.1338E+03  0.1004E+04
     -2.670  0.6003E+02  0.1009E+04
     -2.592  0.3497E+02  0.1011E+04
     -2.514  0.3592E+02  0.1014E+04
     -2.436  0.4049E+02  0.1017E+04
     -2.358  0.3483E+02  0.1020E+04
     -2.280  0.3505E+02  0.1023E+04
     -2.202  0.3682E+02  0.1026E+04
     -2.124  0.3182E+02  0.1028E+04
     -2.047  0.2644E+02  0.1030E+04
     -1.969  0.2034E+02  0.1032E+04
     -1.891  0.1444E+02  0.1033E+04
     -1.813  0.4606E+01  0.1033E+04
     -1.735  0.4423E+01  0.1034E+04
     -1.657  0.1821E+02  0.1035E+04
     -1.579  0.4141E+02  0.1038E+04
     -1.501  0.5557E+02  0.1043E+04
     -1.423  0.4053E+02  0.1046E+04
     -1.345  0.2920E+02  0.1048E+04
     -1.267  0.2390E+02  0.1050E+04
     -1.189  0.2761E+02  0.1052E+04
     -1.111  0.2573E+02  0.1054E+04
     -1.033  0.2392E+02  0.1056E+04
     -0.955  0.3121E+02  0.1058E+04
     -0.877  0.2865E+02  0.1061E+04
     -0.799  0.1731E+02  0.1062E+04
     -0.721  0.1508E+02  0.1063E+04
     -0.643  0.2210E+02  0.1065E+04
     -0.565  0.3916E+02  0.1068E+04
     -0.487  0.4333E+02  0.1071E+04
     -0.409  0.2861E+02  0.1074E+04
     -0.331  0.3450E+02  0.1076E+04
     -0.253  0.3938E+02  0.1079E+04
     -0.175  0.3299E+02  0.1082E+04
     -0.097  0.2359E+02  0.1084E+04
     -0.019  0.3188E+02  0.1086E+04
      0.059  0.3935E+02  0.1089E+04
      0.137  0.3403E+02  0.1092E+04
      0.215  0.1556E+02  0.1093E+04
      0.292  0.1158E+02  0.1094E+04
      0.370  0.2350E+02  0.1096E+04
      0.448  0.3556E+02  0.1099E+04
      0.526  0.3357E+02  0.1101E+04
      0.604  0.2180E+02  0.1103E+04
      0.682  0.3017E+02  0.1105E+04
      0.760  0.4461E+02  0.1109E+04
      0.838  0.4752E+02  0.1113E+04
      0.916  0.3468E+02  0.1115E+04
      0.994  0.2851E+02  0.1117E+04
      1.072  0.2611E+02  0.1119E+04
      1.150  0.1539E+02  0.1121E+04
      1.228  0.1750E+02  0.1122E+04
      1.306  0.2394E+02  0.1124E+04
      1.384  0.3116E+02  0.1126E+04
      1.462  0.3340E+02  0.1129E+04
      1.540  0.2643E+02  0.1131E+04
      1.618  0.2126E+02  0.1133E+04
      1.696  0.2118E+02  0.1134E+04
      1.774  0.3257E+02  0.1137E+04
      1.852  0.3409E+02  0.1140E+04
      1.930  0.2714E+02  0.1142E+04
      2.008  0.1710E+02  0.1143E+04
      2.086  0.1221E+02  0.1144E+04
      2.164  0.1562E+02  0.1145E+04
      2.242  0.2058E+02  0.1147E+04
      2.320  0.2791E+02  0.1149E+04
      2.398  0.3854E+02  0.1152E+04
      2.476  0.2933E+02  0.1154E+04
      2.554  0.1534E+02  0.1155E+04
      2.632  0.2067E+02  0.1157E+04
      2.709  0.2155E+02  0.1159E+04
      2.787  0.1766E+02  0.1160E+04
      2.865  0.2617E+02  0.1162E+04
      2.943  0.3438E+02  0.1165E+04
      3.021  0.3206E+02  0.1167E+04
      3.099  0.3794E+02  0.1170E+04
      3.177  0.4648E+02  0.1174E+04
      3.255  0.4950E+02  0.1178E+04
      3.333  0.4834E+02  0.1182E+04
      3.411  0.4400E+02  0.1185E+04
      3.489  0.4087E+02  0.1188E+04
      3.567  0.3789E+02  0.1191E+04
      3.645  0.3905E+02  0.1194E+04
      3.723  0.5129E+02  0.1198E+04
      3.801  0.5480E+02  0.1202E+04
      3.879  0.4296E+02  0.1206E+04
      3.957  0.3858E+02  0.1209E+04
      4.035  0.4671E+02  0.1212E+04
      4.113  0.5027E+02  0.1216E+04
      4.191  0.5682E+02  0.1221E+04
      4.269  0.6033E+02  0.1225E+04
      4.347  0.6221E+02  0.1230E+04
      4.425  0.5230E+02  0.1234E+04
      4.503  0.3915E+02  0.1237E+04
      4.581  0.4075E+02  0.1241E+04
      4.659  0.3853E+02  0.1244E+04
      4.737  0.4305E+02  0.1247E+04
      4.815  0.5839E+02  0.1252E+04
      4.893  0.7577E+02  0.1257E+04
      4.971  0.7999E+02  0.1264E+04
      5.048  0.5620E+02  0.1268E+04
      5.126  0.3519E+02  0.1271E+04
      5.204  0.3639E+02  0.1274E+04
      5.282  0.4205E+02  0.1277E+04
      5.360  0.4578E+02  0.1280E+04
      5.438  0.6151E+02  0.1285E+04
      5.516  0.7066E+02  0.1291E+04
      5.594  0.7075E+02  0.1296E+04
      5.672  0.7040E+02  0.1302E+04
      5.750  0.6037E+02  0.1306E+04
      5.828  0.4522E+02  0.1310E+04
      5.906  0.4582E+02  0.1314E+04
      5.984  0.6203E+02  0.1318E+04
      6.062  0.6651E+02  0.1324E+04
      6.140  0.5586E+02  0.1328E+04
      6.218  0.5231E+02  0.1332E+04
      6.296  0.5730E+02  0.1337E+04
      6.374  0.5691E+02  0.1341E+04
      6.452  0.5725E+02  0.1345E+04
      6.530  0.6165E+02  0.1350E+04
      6.608  0.6882E+02  0.1356E+04
      6.686  0.6273E+02  0.1360E+04
      6.764  0.6395E+02  0.1365E+04
      6.842  0.7890E+02  0.1372E+04
      6.920  0.7760E+02  0.1378E+04
      6.998  0.7666E+02  0.1384E+04
      7.076  0.7608E+02  0.1390E+04
      7.154  0.6894E+02  0.1395E+04
      7.232  0.6848E+02  0.1400E+04
      7.310  0.6545E+02  0.1405E+04
      7.388  0.7000E+02  0.1411E+04
      7.465  0.7633E+02  0.1417E+04
      7.543  0.6899E+02  0.1422E+04
      7.621  0.7318E+02  0.1428E+04
      7.699  0.8035E+02  0.1434E+04
      7.777  0.7437E+02  0.1440E+04
      7.855  0.7365E+02  0.1446E+04
      7.933  0.7358E+02  0.1451E+04
      8.011  0.6741E+02  0.1457E+04
      8.089  0.6239E+02  0.1462E+04
      8.167  0.7005E+02  0.1467E+04
      8.245  0.7878E+02  0.1473E+04
      8.323  0.7901E+02  0.1479E+04
      8.401  0.8501E+02  0.1486E+04
      8.479  0.9255E+02  0.1493E+04
      8.557  0.8587E+02  0.1500E+04
      8.635  0.7316E+02  0.1506E+04
      8.713  0.7862E+02  0.1512E+04
      8.791  0.7783E+02  0.1518E+04
      8.869  0.7085E+02  0.1523E+04
      8.947  0.6649E+02  0.1528E+04
      9.025  0.7054E+02  0.1534E+04
      9.103  0.7626E+02  0.1540E+04
      9.181  0.7854E+02  0.1546E+04
      9.259  0.8675E+02  0.1553E+04
      9.337  0.9344E+02  0.1560E+04
      9.415  0.9334E+02  0.1567E+04
      9.493  0.8943E+02  0.1574E+04
      9.571  0.9078E+02  0.1581E+04
      9.649  0.9918E+02  0.1589E+04
      9.727  0.9873E+02  0.1597E+04
      9.804  0.8374E+02  0.1603E+04
      9.882  0.7551E+02  0.1609E+04
      9.960  0.8613E+02  0.1616E+04
     10.038  0.9211E+02  0.1623E+04
     10.116  0.9584E+02  0.1631E+04
     10.194  0.9403E+02  0.1638E+04
     10.272  0.7878E+02  0.1644E+04
     10.350  0.6739E+02  0.1649E+04
     10.428  0.7034E+02  0.1655E+04
     10.506  0.8426E+02  0.1661E+04
     10.584  0.9236E+02  0.1669E+04
     10.662  0.9743E+02  0.1676E+04
     10.740  0.9505E+02  0.1684E+04
     10.818  0.8980E+02  0.1691E+04
     10.896  0.9269E+02  0.1698E+04
     10.974  0.9107E+02  0.1705E+04
     11.052  0.8955E+02  0.1712E+04
     11.130  0.8592E+02  0.1719E+04
     11.208  0.8306E+02  0.1725E+04
     11.286  0.8915E+02  0.1732E+04
     11.364  0.8788E+02  0.1739E+04
     11.442  0.8506E+02  0.1746E+04
     11.520  0.8877E+02  0.1752E+04
     11.598  0.8355E+02  0.1759E+04
     11.676  0.8228E+02  0.1765E+04
     11.754  0.8802E+02  0.1772E+04
     11.832  0.9547E+02  0.1780E+04
     11.910  0.9457E+02  0.1787E+04
     11.988  0.8046E+02  0.1793E+04
     12.066  0.8525E+02  0.1800E+04
     12.144  0.9802E+02  0.1808E+04
     12.221  0.9373E+02  0.1815E+04
     12.299  0.8445E+02  0.1822E+04
     12.377  0.8223E+02  0.1828E+04
     12.455  0.7221E+02  0.1834E+04
     12.533  0.4621E+02  0.1837E+04
     12.611  0.2069E+02  0.1839E+04
     12.689  0.8159E+01  0.1839E+04
     12.767  0.5195E+01  0.1840E+04
     12.845  0.2443E+01  0.1840E+04
     12.923  0.1147E+00  0.1840E+04
     13.001 -0.1271E+00  0.1840E+04
     13.079 -0.1538E-01  0.1840E+04
     13.157 -0.4421E-03  0.1840E+04
     13.235 -0.3548E-05  0.1840E+04
     13.313 -0.8194E-08  0.1840E+04
     13.391 -0.5493E-11  0.1840E+04
     13.469 -0.1068E-14  0.1840E+04
     13.547  0.0000E+00  0.1840E+04
     13.625  0.0000E+00  0.1840E+04
     13.703  0.0000E+00  0.1840E+04
     13.781  0.0000E+00  0.1840E+04
     13.859  0.0000E+00  0.1840E+04
     13.85878557     -9.53138032  301     -1.03268566      1.00000000
     -9.531  0.0000E+00  0.0000E+00  0.0000E+00
     -9.453  0.0000E+00  0.0000E+00  0.0000E+00
     -9.375  0.0000E+00  0.0000E+00  0.0000E+00
     -9.297 -0.4809E-32 -0.4707E-33 -0.1307E-34
     -9.220 -0.9801E-27 -0.9591E-28 -0.2663E-29
     -9.142 -0.5858E-22 -0.5732E-23 -0.1592E-24
     -9.064 -0.1024E-17 -0.1002E-18 -0.2783E-20
     -8.986 -0.5025E-14 -0.4917E-15 -0.1366E-16
     -8.908 -0.7308E-11 -0.7152E-12 -0.1989E-13
     -8.830 -0.3019E-08 -0.2955E-09 -0.8272E-11
     -8.752 -0.3445E-06 -0.3375E-07 -0.9790E-09
     -8.674 -0.1019E-04 -0.1002E-05 -0.3527E-07
     -8.596 -0.6425E-04 -0.6543E-05 -0.5272E-06
     -8.518  0.4855E-04  0.2287E-05 -0.3263E-05
     -8.440  0.1302E-02  0.1321E-03  0.1004E-04
     -8.362  0.4744E-02  0.5143E-03  0.8082E-04
     -8.284  0.3922E-02  0.4240E-03  0.6114E-04
     -8.206  0.1661E-02  0.2175E-03  0.9757E-04
     -8.128  0.5098E-02  0.7340E-03  0.4314E-03
     -8.050  0.5779E-02  0.8480E-03  0.5450E-03
     -7.972  0.5391E-02  0.5980E-03  0.3102E-03
     -7.894  0.1219E-01  0.9342E-03  0.3668E-03
     -7.816  0.2067E-01  0.1943E-02  0.1339E-02
     -7.738  0.1566E-01  0.2165E-02  0.2279E-02
     -7.660  0.2089E-01  0.2851E-02  0.2942E-02
     -7.582  0.2349E-01  0.3106E-02  0.3497E-02
     -7.504  0.1294E-01  0.1530E-02  0.1445E-02
     -7.426  0.5023E-02  0.5705E-03  0.5502E-03
     -7.348  0.2639E-01  0.3942E-02  0.8463E-02
     -7.270  0.5420E-01  0.7365E-02  0.1667E-01
     -7.192  0.4002E-01  0.5351E-02  0.2095E-01
     -7.114  0.2027E-01  0.3597E-02  0.4562E-01
     -7.036  0.3721E-01  0.6649E-02  0.1231E+00
     -6.958  0.7259E-01  0.1273E-01  0.2748E+00
     -6.880  0.8857E-01  0.1535E-01  0.4118E+00
     -6.803  0.8901E-01  0.1731E-01  0.5649E+00
     -6.725  0.9440E-01  0.2182E-01  0.8192E+00
     -6.647  0.1085E+00  0.2852E-01  0.1294E+01
     -6.569  0.1354E+00  0.3816E-01  0.1770E+01
     -6.491  0.1546E+00  0.3917E-01  0.1799E+01
     -6.413  0.1516E+00  0.3468E-01  0.1645E+01
     -6.335  0.1347E+00  0.3325E-01  0.1663E+01
     -6.257  0.9884E-01  0.2850E-01  0.1816E+01
     -6.179  0.7267E-01  0.2756E-01  0.2096E+01
     -6.101  0.6593E-01  0.3157E-01  0.2428E+01
     -6.023  0.6119E-01  0.3018E-01  0.2618E+01
     -5.945  0.5478E-01  0.2380E-01  0.2593E+01
     -5.867  0.4695E-01  0.1856E-01  0.2458E+01
     -5.789  0.4142E-01  0.1799E-01  0.2802E+01
     -5.711  0.3792E-01  0.1894E-01  0.3078E+01
     -5.633  0.4129E-01  0.1889E-01  0.3046E+01
     -5.555  0.4119E-01  0.2133E-01  0.3107E+01
     -5.477  0.3886E-01  0.2418E-01  0.3010E+01
     -5.399  0.3575E-01  0.2534E-01  0.2819E+01
     -5.321  0.3506E-01  0.2669E-01  0.3020E+01
     -5.243  0.3470E-01  0.3102E-01  0.3557E+01
     -5.165  0.3418E-01  0.3824E-01  0.3791E+01
     -5.087  0.3794E-01  0.4040E-01  0.3743E+01
     -5.009  0.4154E-01  0.3729E-01  0.3687E+01
     -4.931  0.4141E-01  0.3475E-01  0.3603E+01
     -4.853  0.3740E-01  0.3245E-01  0.3591E+01
     -4.775  0.3655E-01  0.3057E-01  0.3874E+01
     -4.697  0.4069E-01  0.2957E-01  0.4330E+01
     -4.619  0.3898E-01  0.2692E-01  0.4648E+01
     -4.541  0.3449E-01  0.2390E-01  0.4603E+01
     -4.464  0.3474E-01  0.2340E-01  0.4406E+01
     -4.386  0.3613E-01  0.2451E-01  0.3871E+01
     -4.308  0.3496E-01  0.2444E-01  0.3404E+01
     -4.230  0.4077E-01  0.2292E-01  0.3536E+01
     -4.152  0.4512E-01  0.2319E-01  0.3612E+01
     -4.074  0.4329E-01  0.2167E-01  0.2892E+01
     -3.996  0.4437E-01  0.1610E-01  0.1934E+01
     -3.918  0.3792E-01  0.7501E-02  0.9227E+00
     -3.840  0.2378E-01  0.4035E-02  0.3323E+00
     -3.762  0.2444E-01  0.9882E-02  0.2072E+00
     -3.684  0.4781E-01  0.1533E-01  0.2189E+00
     -3.606  0.6116E-01  0.1391E-01  0.2167E+00
     -3.528  0.6135E-01  0.1322E-01  0.2076E+00
     -3.450  0.6494E-01  0.1727E-01  0.2016E+00
     -3.372  0.6116E-01  0.2114E-01  0.2476E+00
     -3.294  0.5874E-01  0.2564E-01  0.3236E+00
     -3.216  0.5866E-01  0.2842E-01  0.4013E+00
     -3.138  0.6062E-01  0.2899E-01  0.4315E+00
     -3.060  0.5544E-01  0.2523E-01  0.3602E+00
     -2.982  0.4759E-01  0.2020E-01  0.2555E+00
     -2.904  0.3615E-01  0.2253E-01  0.2649E+00
     -2.826  0.2619E-01  0.2812E-01  0.2975E+00
     -2.748  0.2682E-01  0.2557E-01  0.2245E+00
     -2.670  0.3552E-01  0.1795E-01  0.1400E+00
     -2.592  0.4893E-01  0.1603E-01  0.7743E-01
     -2.514  0.6153E-01  0.2978E-01  0.7101E-01
     -2.436  0.5619E-01  0.2954E-01  0.7750E-01
     -2.358  0.2939E-01  0.1748E-01  0.5993E-01
     -2.280  0.4076E-01  0.2317E-01  0.8124E-01
     -2.202  0.6990E-01  0.3438E-01  0.1035E+00
     -2.124  0.6384E-01  0.3622E-01  0.8759E-01
     -2.047  0.4651E-01  0.2689E-01  0.6851E-01
     -1.969  0.3618E-01  0.2222E-01  0.4422E-01
     -1.891  0.2604E-01  0.1619E-01  0.3013E-01
     -1.813  0.7460E-02  0.3791E-02  0.1058E-01
     -1.735  0.9322E-02  0.7556E-02  0.1982E-01
     -1.657  0.4309E-01  0.3000E-01  0.5985E-01
     -1.579  0.9192E-01  0.6090E-01  0.1051E+00
     -1.501  0.1150E+00  0.7425E-01  0.1188E+00
     -1.423  0.8279E-01  0.6003E-01  0.7141E-01
     -1.345  0.4831E-01  0.4839E-01  0.4298E-01
     -1.267  0.2346E-01  0.2487E-01  0.3869E-01
     -1.189  0.3668E-01  0.3140E-01  0.6234E-01
     -1.111  0.3654E-01  0.4323E-01  0.6076E-01
     -1.033  0.3695E-01  0.5002E-01  0.5222E-01
     -0.955  0.5453E-01  0.6115E-01  0.7085E-01
     -0.877  0.4035E-01  0.5312E-01  0.6231E-01
     -0.799  0.2668E-01  0.2816E-01  0.3729E-01
     -0.721  0.2739E-01  0.2564E-01  0.2863E-01
     -0.643  0.4210E-01  0.4527E-01  0.3550E-01
     -0.565  0.8004E-01  0.8704E-01  0.8312E-01
     -0.487  0.8874E-01  0.1023E+00  0.1044E+00
     -0.409  0.5974E-01  0.7716E-01  0.6238E-01
     -0.331  0.5458E-01  0.8088E-01  0.6577E-01
     -0.253  0.3820E-01  0.7573E-01  0.6153E-01
     -0.175  0.3459E-01  0.5949E-01  0.4362E-01
     -0.097  0.3523E-01  0.4140E-01  0.3227E-01
     -0.019  0.3678E-01  0.6390E-01  0.4505E-01
      0.059  0.4189E-01  0.7367E-01  0.7672E-01
      0.137  0.3982E-01  0.7037E-01  0.7378E-01
      0.215  0.1657E-01  0.4430E-01  0.2884E-01
      0.292  0.1157E-01  0.2890E-01  0.2343E-01
      0.370  0.2350E-01  0.5997E-01  0.4127E-01
      0.448  0.3595E-01  0.1119E+00  0.4865E-01
      0.526  0.4003E-01  0.1121E+00  0.5201E-01
      0.604  0.3084E-01  0.7547E-01  0.4012E-01
      0.682  0.3969E-01  0.7763E-01  0.6161E-01
      0.760  0.5165E-01  0.1069E+00  0.8324E-01
      0.838  0.5404E-01  0.1356E+00  0.8389E-01
      0.916  0.3879E-01  0.9528E-01  0.6390E-01
      0.994  0.3195E-01  0.7522E-01  0.4316E-01
      1.072  0.3115E-01  0.5846E-01  0.3310E-01
      1.150  0.1597E-01  0.3462E-01  0.2344E-01
      1.228  0.9709E-02  0.4342E-01  0.2924E-01
      1.306  0.1255E-01  0.4664E-01  0.3263E-01
      1.384  0.1504E-01  0.6904E-01  0.4299E-01
      1.462  0.1748E-01  0.7862E-01  0.5379E-01
      1.540  0.1627E-01  0.6249E-01  0.4905E-01
      1.618  0.1525E-01  0.6601E-01  0.3847E-01
      1.696  0.1590E-01  0.6510E-01  0.3937E-01
      1.774  0.2853E-01  0.8661E-01  0.5891E-01
      1.852  0.3315E-01  0.8237E-01  0.5331E-01
      1.930  0.2922E-01  0.6501E-01  0.4298E-01
      2.008  0.2206E-01  0.4780E-01  0.2966E-01
      2.086  0.9305E-02  0.3136E-01  0.1888E-01
      2.164  0.6664E-02  0.3463E-01  0.2200E-01
      2.242  0.1508E-01  0.4357E-01  0.3264E-01
      2.320  0.1893E-01  0.5748E-01  0.4426E-01
      2.398  0.1984E-01  0.8325E-01  0.5233E-01
      2.476  0.2243E-01  0.6763E-01  0.4251E-01
      2.554  0.2037E-01  0.2332E-01  0.2210E-01
      2.632  0.3057E-01  0.2271E-01  0.2302E-01
      2.709  0.2972E-01  0.2713E-01  0.2308E-01
      2.787  0.1747E-01  0.2606E-01  0.2122E-01
      2.865  0.2280E-01  0.4356E-01  0.3309E-01
      2.943  0.3621E-01  0.5147E-01  0.4436E-01
      3.021  0.3983E-01  0.4077E-01  0.4547E-01
      3.099  0.7079E-01  0.4420E-01  0.6139E-01
      3.177  0.9594E-01  0.5321E-01  0.7775E-01
      3.255  0.9032E-01  0.6588E-01  0.7789E-01
      3.333  0.7483E-01  0.6490E-01  0.5956E-01
      3.411  0.5504E-01  0.5854E-01  0.5037E-01
      3.489  0.6789E-01  0.6179E-01  0.5716E-01
      3.567  0.1009E+00  0.5572E-01  0.6136E-01
      3.645  0.1057E+00  0.5863E-01  0.5909E-01
      3.723  0.1068E+00  0.6109E-01  0.6318E-01
      3.801  0.1097E+00  0.5178E-01  0.6780E-01
      3.879  0.8574E-01  0.4438E-01  0.6156E-01
      3.957  0.8285E-01  0.4482E-01  0.5214E-01
      4.035  0.8680E-01  0.5932E-01  0.5358E-01
      4.113  0.8991E-01  0.6701E-01  0.6297E-01
      4.191  0.1051E+00  0.8309E-01  0.7547E-01
      4.269  0.1110E+00  0.8032E-01  0.6888E-01
      4.347  0.8980E-01  0.7121E-01  0.6103E-01
      4.425  0.7153E-01  0.7060E-01  0.4773E-01
      4.503  0.5843E-01  0.5368E-01  0.3802E-01
      4.581  0.5766E-01  0.5188E-01  0.3919E-01
      4.659  0.7575E-01  0.6354E-01  0.4927E-01
      4.737  0.8571E-01  0.8144E-01  0.6123E-01
      4.815  0.8838E-01  0.9793E-01  0.7006E-01
      4.893  0.8657E-01  0.1150E+00  0.7939E-01
      4.971  0.9105E-01  0.1311E+00  0.8707E-01
      5.048  0.6828E-01  0.9158E-01  0.6383E-01
      5.126  0.2392E-01  0.4463E-01  0.2991E-01
      5.204  0.2110E-01  0.4131E-01  0.2645E-01
      5.282  0.4052E-01  0.5747E-01  0.3990E-01
      5.360  0.5417E-01  0.7275E-01  0.4994E-01
      5.438  0.8003E-01  0.9783E-01  0.5962E-01
      5.516  0.8855E-01  0.1098E+00  0.5866E-01
      5.594  0.7095E-01  0.1009E+00  0.5692E-01
      5.672  0.4834E-01  0.8850E-01  0.5787E-01
      5.750  0.4798E-01  0.8353E-01  0.5707E-01
      5.828  0.6136E-01  0.8007E-01  0.4687E-01
      5.906  0.6894E-01  0.9455E-01  0.4281E-01
      5.984  0.6603E-01  0.9491E-01  0.5156E-01
      6.062  0.5474E-01  0.8853E-01  0.5015E-01
      6.140  0.5412E-01  0.7489E-01  0.4108E-01
      6.218  0.4237E-01  0.6361E-01  0.4089E-01
      6.296  0.3392E-01  0.7063E-01  0.4442E-01
      6.374  0.4930E-01  0.7999E-01  0.4559E-01
      6.452  0.6742E-01  0.9173E-01  0.4576E-01
      6.530  0.5961E-01  0.8935E-01  0.4610E-01
      6.608  0.4876E-01  0.8951E-01  0.5225E-01
      6.686  0.4590E-01  0.8694E-01  0.5692E-01
      6.764  0.4972E-01  0.9345E-01  0.6599E-01
      6.842  0.5838E-01  0.1102E+00  0.7827E-01
      6.920  0.5198E-01  0.1039E+00  0.7626E-01
      6.998  0.6002E-01  0.1032E+00  0.6930E-01
      7.076  0.7013E-01  0.8651E-01  0.6222E-01
      7.154  0.6583E-01  0.7873E-01  0.5994E-01
      7.232  0.5413E-01  0.8602E-01  0.6181E-01
      7.310  0.3859E-01  0.9003E-01  0.6032E-01
      7.388  0.4860E-01  0.9175E-01  0.6053E-01
      7.465  0.6979E-01  0.9194E-01  0.6608E-01
      7.543  0.6895E-01  0.7567E-01  0.5757E-01
      7.621  0.7731E-01  0.7936E-01  0.5987E-01
      7.699  0.7585E-01  0.9685E-01  0.6793E-01
      7.777  0.4954E-01  0.1057E+00  0.5787E-01
      7.855  0.4508E-01  0.1133E+00  0.5427E-01
      7.933  0.6116E-01  0.1019E+00  0.6136E-01
      8.011  0.6911E-01  0.8344E-01  0.5995E-01
      8.089  0.5437E-01  0.8582E-01  0.5794E-01
      8.167  0.3871E-01  0.9541E-01  0.6799E-01
      8.245  0.4431E-01  0.1059E+00  0.7250E-01
      8.323  0.5084E-01  0.1231E+00  0.7257E-01
      8.401  0.6034E-01  0.1300E+00  0.6656E-01
      8.479  0.5880E-01  0.1157E+00  0.6892E-01
      8.557  0.4615E-01  0.9910E-01  0.6944E-01
      8.635  0.4603E-01  0.1008E+00  0.6992E-01
      8.713  0.6333E-01  0.1145E+00  0.8242E-01
      8.791  0.6074E-01  0.1062E+00  0.7234E-01
      8.869  0.4813E-01  0.9334E-01  0.5688E-01
      8.947  0.4609E-01  0.8639E-01  0.5954E-01
      9.025  0.4785E-01  0.9333E-01  0.6004E-01
      9.103  0.5624E-01  0.1217E+00  0.5333E-01
      9.181  0.5607E-01  0.1315E+00  0.5497E-01
      9.259  0.4797E-01  0.1209E+00  0.6755E-01
      9.337  0.4736E-01  0.1131E+00  0.6878E-01
      9.415  0.4543E-01  0.1198E+00  0.6272E-01
      9.493  0.4341E-01  0.1215E+00  0.6062E-01
      9.571  0.4772E-01  0.1068E+00  0.6674E-01
      9.649  0.5392E-01  0.1114E+00  0.8564E-01
      9.727  0.5050E-01  0.1277E+00  0.9038E-01
      9.804  0.4148E-01  0.1253E+00  0.7870E-01
      9.882  0.3901E-01  0.1205E+00  0.6735E-01
      9.960  0.4874E-01  0.1354E+00  0.7010E-01
     10.038  0.5119E-01  0.1356E+00  0.7100E-01
     10.116  0.4833E-01  0.1219E+00  0.7711E-01
     10.194  0.4092E-01  0.1187E+00  0.8356E-01
     10.272  0.3497E-01  0.1211E+00  0.7339E-01
     10.350  0.3649E-01  0.1234E+00  0.6509E-01
     10.428  0.3751E-01  0.1105E+00  0.5876E-01
     10.506  0.4000E-01  0.1286E+00  0.6160E-01
     10.584  0.4095E-01  0.1335E+00  0.6506E-01
     10.662  0.3454E-01  0.1228E+00  0.6137E-01
     10.740  0.3131E-01  0.1255E+00  0.6166E-01
     10.818  0.3129E-01  0.1316E+00  0.6846E-01
     10.896  0.4546E-01  0.1554E+00  0.7247E-01
     10.974  0.5132E-01  0.1607E+00  0.7157E-01
     11.052  0.3809E-01  0.1521E+00  0.7062E-01
     11.130  0.2620E-01  0.1341E+00  0.5876E-01
     11.208  0.2491E-01  0.1086E+00  0.5327E-01
     11.286  0.2972E-01  0.1293E+00  0.6589E-01
     11.364  0.3053E-01  0.1554E+00  0.7143E-01
     11.442  0.2888E-01  0.1443E+00  0.6900E-01
     11.520  0.3220E-01  0.1341E+00  0.7455E-01
     11.598  0.3113E-01  0.1222E+00  0.6966E-01
     11.676  0.2439E-01  0.1282E+00  0.6003E-01
     11.754  0.2449E-01  0.1424E+00  0.6583E-01
     11.832  0.2754E-01  0.1466E+00  0.7756E-01
     11.910  0.2865E-01  0.1519E+00  0.7569E-01
     11.988  0.2721E-01  0.1474E+00  0.6185E-01
     12.066  0.2549E-01  0.1342E+00  0.6280E-01
     12.144  0.3082E-01  0.1293E+00  0.6984E-01
     12.221  0.2946E-01  0.1312E+00  0.6764E-01
     12.299  0.2133E-01  0.1350E+00  0.6679E-01
     12.377  0.1946E-01  0.1310E+00  0.5838E-01
     12.455  0.1633E-01  0.9930E-01  0.4589E-01
     12.533  0.1075E-01  0.6149E-01  0.3229E-01
     12.611  0.4919E-02  0.2905E-01  0.1632E-01
     12.689  0.1445E-02  0.9443E-02  0.6500E-02
     12.767  0.7556E-03  0.5274E-02  0.4836E-02
     12.845  0.3202E-03  0.2638E-02  0.2523E-02
     12.923 -0.7645E-05  0.6974E-04  0.1424E-03
     13.001 -0.1696E-04 -0.1371E-03 -0.1247E-03
     13.079 -0.1635E-05 -0.1508E-04 -0.1562E-04
     13.157 -0.4317E-07 -0.4133E-06 -0.4611E-06
     13.235 -0.3372E-09 -0.3234E-08 -0.3774E-08
     13.313 -0.7747E-12 -0.7370E-11 -0.8830E-11
     13.391 -0.5199E-15 -0.4906E-14 -0.5969E-14
     13.469 -0.1019E-18 -0.9453E-18 -0.1176E-17
     13.547  0.0000E+00  0.0000E+00  0.0000E+00
     13.625  0.0000E+00  0.0000E+00  0.0000E+00
     13.703  0.0000E+00  0.0000E+00  0.0000E+00
     13.781  0.0000E+00  0.0000E+00  0.0000E+00
     13.859  0.0000E+00  0.0000E+00  0.0000E+00
     13.85878557     -9.53138032  301     -1.03268566      1.00000000
     -9.531  0.0000E+00  0.0000E+00  0.0000E+00
     -9.453  0.0000E+00  0.0000E+00  0.0000E+00
     -9.375  0.0000E+00  0.0000E+00  0.0000E+00
     -9.297 -0.5476E-32 -0.5527E-33 -0.7801E-35
     -9.220 -0.1116E-26 -0.1126E-27 -0.1590E-29
     -9.142 -0.6670E-22 -0.6731E-23 -0.9501E-25
     -9.064 -0.1166E-17 -0.1177E-18 -0.1661E-20
     -8.986 -0.5722E-14 -0.5774E-15 -0.8154E-17
     -8.908 -0.8322E-11 -0.8398E-12 -0.1189E-13
     -8.830 -0.3438E-08 -0.3470E-09 -0.4971E-11
     -8.752 -0.3924E-06 -0.3963E-07 -0.6057E-09
     -8.674 -0.1161E-04 -0.1177E-05 -0.2484E-07
     -8.596 -0.7357E-04 -0.7692E-05 -0.4912E-06
     -8.518  0.5139E-04  0.2598E-05 -0.3651E-05
     -8.440  0.1490E-02  0.1553E-03  0.9245E-05
     -8.362  0.5476E-02  0.6053E-03  0.8248E-04
     -8.284  0.4497E-02  0.4965E-03  0.6315E-04
     -8.206  0.2058E-02  0.2647E-03  0.1019E-03
     -8.128  0.7067E-02  0.9459E-03  0.4315E-03
     -8.050  0.7400E-02  0.1043E-02  0.5973E-03
     -7.972  0.4896E-02  0.5937E-03  0.3950E-03
     -7.894  0.1338E-01  0.1062E-02  0.2852E-03
     -7.816  0.2165E-01  0.2160E-02  0.1475E-02
     -7.738  0.1429E-01  0.2161E-02  0.2716E-02
     -7.660  0.3308E-01  0.3710E-02  0.2663E-02
     -7.582  0.3827E-01  0.4259E-02  0.3248E-02
     -7.504  0.1065E-01  0.1599E-02  0.1638E-02
     -7.426  0.3570E-02  0.6444E-03  0.5438E-03
     -7.348  0.3123E-01  0.4859E-02  0.8443E-02
     -7.270  0.4452E-01  0.7587E-02  0.1629E-01
     -7.192  0.3535E-01  0.5973E-02  0.2869E-01
     -7.114  0.3840E-01  0.7024E-02  0.1083E+00
     -7.036  0.6722E-01  0.1239E-01  0.2923E+00
     -6.958  0.1275E+00  0.1811E-01  0.5202E+00
     -6.880  0.1526E+00  0.2018E-01  0.6856E+00
     -6.803  0.1654E+00  0.2267E-01  0.8623E+00
     -6.725  0.1787E+00  0.3101E-01  0.1279E+01
     -6.647  0.1780E+00  0.4178E-01  0.2167E+01
     -6.569  0.1543E+00  0.4730E-01  0.2875E+01
     -6.491  0.1109E+00  0.5136E-01  0.2778E+01
     -6.413  0.9230E-01  0.5166E-01  0.2385E+01
     -6.335  0.7040E-01  0.4248E-01  0.1982E+01
     -6.257  0.5471E-01  0.3435E-01  0.1817E+01
     -6.179  0.5374E-01  0.3348E-01  0.2234E+01
     -6.101  0.4656E-01  0.3010E-01  0.2595E+01
     -6.023  0.3279E-01  0.2081E-01  0.2136E+01
     -5.945  0.3686E-01  0.1874E-01  0.1625E+01
     -5.867  0.4416E-01  0.2069E-01  0.1565E+01
     -5.789  0.3703E-01  0.2279E-01  0.1934E+01
     -5.711  0.2873E-01  0.2379E-01  0.2181E+01
     -5.633  0.2560E-01  0.2528E-01  0.2312E+01
     -5.555  0.3235E-01  0.2786E-01  0.2649E+01
     -5.477  0.4298E-01  0.2739E-01  0.2903E+01
     -5.399  0.4266E-01  0.2545E-01  0.2945E+01
     -5.321  0.3662E-01  0.2645E-01  0.3096E+01
     -5.243  0.3469E-01  0.3278E-01  0.3549E+01
     -5.165  0.3516E-01  0.3689E-01  0.3745E+01
     -5.087  0.4532E-01  0.3756E-01  0.3562E+01
     -5.009  0.4851E-01  0.3809E-01  0.3674E+01
     -4.931  0.4283E-01  0.3535E-01  0.3963E+01
     -4.853  0.3923E-01  0.3104E-01  0.3764E+01
     -4.775  0.3897E-01  0.3101E-01  0.3376E+01
     -4.697  0.3804E-01  0.3177E-01  0.3323E+01
     -4.619  0.3896E-01  0.2773E-01  0.3767E+01
     -4.541  0.3924E-01  0.2316E-01  0.4112E+01
     -4.464  0.4184E-01  0.2177E-01  0.4149E+01
     -4.386  0.4520E-01  0.2176E-01  0.3757E+01
     -4.308  0.3948E-01  0.2113E-01  0.3540E+01
     -4.230  0.3905E-01  0.1908E-01  0.3974E+01
     -4.152  0.4545E-01  0.1796E-01  0.4356E+01
     -4.074  0.4687E-01  0.1706E-01  0.3792E+01
     -3.996  0.4237E-01  0.1502E-01  0.2760E+01
     -3.918  0.3068E-01  0.8880E-02  0.1480E+01
     -3.840  0.2324E-01  0.3959E-02  0.5169E+00
     -3.762  0.3969E-01  0.6082E-02  0.2230E+00
     -3.684  0.6187E-01  0.1312E-01  0.2671E+00
     -3.606  0.5302E-01  0.1791E-01  0.2614E+00
     -3.528  0.3821E-01  0.1716E-01  0.1861E+00
     -3.450  0.3683E-01  0.1651E-01  0.1633E+00
     -3.372  0.3491E-01  0.1618E-01  0.2024E+00
     -3.294  0.3610E-01  0.1819E-01  0.2262E+00
     -3.216  0.3640E-01  0.2429E-01  0.2381E+00
     -3.138  0.3571E-01  0.2795E-01  0.2437E+00
     -3.060  0.3377E-01  0.2718E-01  0.2152E+00
     -2.982  0.3085E-01  0.2233E-01  0.1771E+00
     -2.904  0.2894E-01  0.1978E-01  0.1478E+00
     -2.826  0.3174E-01  0.1934E-01  0.1183E+00
     -2.748  0.3702E-01  0.1288E-01  0.7245E-01
     -2.670  0.3971E-01  0.9462E-02  0.3738E-01
     -2.592  0.4985E-01  0.1698E-01  0.3897E-01