  96  96   1   0
  0.3682426E+02  0.1134438E-08  0.1135456E-08  0.3161027E-08  0.0000000E+00
  1.000000000000000E-004
  CAR 
 unknown system                          
     14.36116631     -8.90944174  301     -0.82685055      1.00000000
     -8.909  0.0000E+00  0.0000E+00
     -8.832  0.0000E+00  0.0000E+00
     -8.754  0.0000E+00  0.0000E+00
     -8.677 -0.1027E-28 -0.7964E-30
     -8.599 -0.1845E-23 -0.1431E-24
     -8.522 -0.9847E-19 -0.7638E-20
     -8.444 -0.1556E-14 -0.1207E-15
     -8.366 -0.6987E-11 -0.5421E-12
     -8.289 -0.9415E-08 -0.7308E-09
     -8.211 -0.3647E-05 -0.2836E-06
     -8.134 -0.3942E-03 -0.3086E-04
     -8.056 -0.1108E-01 -0.8905E-03
     -7.979 -0.6408E-01 -0.5861E-02
     -7.901  0.6913E-01 -0.4984E-03
     -7.823  0.1210E+01  0.9334E-01
     -7.746  0.4820E+01  0.4672E+00
     -7.668  0.4625E+01  0.8260E+00
     -7.591  0.1409E+01  0.9353E+00
     -7.513  0.5765E+01  0.1382E+01
     -7.436  0.7251E+01  0.1945E+01
     -7.358  0.4319E+01  0.2280E+01
     -7.280  0.2701E+01  0.2489E+01
     -7.203  0.8352E+01  0.3137E+01
     -7.125  0.1137E+02  0.4020E+01
     -7.048  0.9451E+01  0.4753E+01
     -6.970  0.1421E+02  0.5855E+01
     -6.893  0.1031E+02  0.6655E+01
     -6.815  0.3957E+01  0.6962E+01
     -6.738  0.1322E+02  0.7987E+01
     -6.660  0.3836E+02  0.1096E+02
     -6.582  0.7461E+02  0.1675E+02
     -6.505  0.1170E+03  0.2582E+02
     -6.427  0.1470E+03  0.3722E+02
     -6.350  0.1557E+03  0.4930E+02
     -6.272  0.1613E+03  0.6181E+02
     -6.195  0.1778E+03  0.7560E+02
     -6.117  0.1954E+03  0.9076E+02
     -6.039  0.1998E+03  0.1063E+03
     -5.962  0.2063E+03  0.1223E+03
     -5.884  0.2210E+03  0.1394E+03
     -5.807  0.2274E+03  0.1570E+03
     -5.729  0.2231E+03  0.1743E+03
     -5.652  0.2195E+03  0.1914E+03
     -5.574  0.2128E+03  0.2079E+03
     -5.496  0.2107E+03  0.2242E+03
     -5.419  0.2133E+03  0.2408E+03
     -5.341  0.2037E+03  0.2566E+03
     -5.264  0.1950E+03  0.2717E+03
     -5.186  0.2032E+03  0.2875E+03
     -5.109  0.2150E+03  0.3041E+03
     -5.031  0.2206E+03  0.3213E+03
     -4.953  0.2246E+03  0.3387E+03
     -4.876  0.2347E+03  0.3569E+03
     -4.798  0.2456E+03  0.3759E+03
     -4.721  0.2501E+03  0.3953E+03
     -4.643  0.2518E+03  0.4149E+03
     -4.566  0.2505E+03  0.4343E+03
     -4.488  0.2387E+03  0.4528E+03
     -4.410  0.2256E+03  0.4703E+03
     -4.333  0.2268E+03  0.4879E+03
     -4.255  0.2344E+03  0.5061E+03
     -4.178  0.2313E+03  0.5240E+03
     -4.100  0.2212E+03  0.5412E+03
     -4.023  0.2072E+03  0.5573E+03
     -3.945  0.1912E+03  0.5721E+03
     -3.867  0.1692E+03  0.5852E+03
     -3.790  0.1530E+03  0.5971E+03
     -3.712  0.1317E+03  0.6073E+03
     -3.635  0.1163E+03  0.6163E+03
     -3.557  0.1092E+03  0.6248E+03
     -3.480  0.1045E+03  0.6329E+03
     -3.402  0.1071E+03  0.6412E+03
     -3.324  0.1048E+03  0.6493E+03
     -3.247  0.1077E+03  0.6577E+03
     -3.169  0.1160E+03  0.6667E+03
     -3.092  0.1226E+03  0.6762E+03
     -3.014  0.1245E+03  0.6859E+03
     -2.937  0.1244E+03  0.6955E+03
     -2.859  0.1281E+03  0.7054E+03
     -2.782  0.1280E+03  0.7154E+03
     -2.704  0.1307E+03  0.7255E+03
     -2.626  0.1297E+03  0.7356E+03
     -2.549  0.1256E+03  0.7453E+03
     -2.471  0.1291E+03  0.7553E+03
     -2.394  0.1329E+03  0.7656E+03
     -2.316  0.1270E+03  0.7755E+03
     -2.239  0.1219E+03  0.7849E+03
     -2.161  0.1253E+03  0.7947E+03
     -2.083  0.1277E+03  0.8046E+03
     -2.006  0.1210E+03  0.8140E+03
     -1.928  0.1170E+03  0.8230E+03
     -1.851  0.1194E+03  0.8323E+03
     -1.773  0.1236E+03  0.8419E+03
     -1.696  0.1300E+03  0.8520E+03
     -1.618  0.1287E+03  0.8619E+03
     -1.540  0.1280E+03  0.8719E+03
     -1.463  0.1278E+03  0.8818E+03
     -1.385  0.1348E+03  0.8922E+03
     -1.308  0.1425E+03  0.9033E+03
     -1.230  0.1424E+03  0.9143E+03
     -1.153  0.1544E+03  0.9263E+03
     -1.075  0.1649E+03  0.9391E+03
     -0.997  0.1619E+03  0.9517E+03
     -0.920  0.1582E+03  0.9639E+03
     -0.842  0.1535E+03  0.9758E+03
     -0.765  0.1290E+03  0.9858E+03
     -0.687  0.1059E+03  0.9940E+03
     -0.610  0.9325E+02  0.1001E+04
     -0.532  0.8907E+02  0.1008E+04
     -0.454  0.7787E+02  0.1014E+04
     -0.377  0.5538E+02  0.1019E+04
     -0.299  0.3877E+02  0.1022E+04
     -0.222  0.3491E+02  0.1024E+04
     -0.144  0.4137E+02  0.1027E+04
     -0.067  0.4551E+02  0.1031E+04
      0.011  0.3190E+02  0.1033E+04
      0.089  0.2069E+02  0.1035E+04
      0.166  0.2813E+02  0.1037E+04
      0.244  0.3774E+02  0.1040E+04
      0.321  0.4706E+02  0.1044E+04
      0.399  0.4959E+02  0.1048E+04
      0.476  0.3716E+02  0.1051E+04
      0.554  0.2075E+02  0.1052E+04
      0.632  0.1816E+02  0.1054E+04
      0.709  0.2220E+02  0.1055E+04
      0.787  0.2159E+02  0.1057E+04
      0.864  0.2199E+02  0.1059E+04
      0.942  0.3263E+02  0.1061E+04
      1.019  0.3870E+02  0.1064E+04
      1.097  0.3970E+02  0.1067E+04
      1.174  0.3938E+02  0.1070E+04
      1.252  0.4354E+02  0.1074E+04
      1.330  0.3522E+02  0.1076E+04
      1.407  0.1899E+02  0.1078E+04
      1.485  0.1500E+02  0.1079E+04
      1.562  0.1712E+02  0.1080E+04
      1.640  0.2333E+02  0.1082E+04
      1.717  0.3560E+02  0.1085E+04
      1.795  0.4016E+02  0.1088E+04
      1.873  0.3619E+02  0.1091E+04
      1.950  0.3400E+02  0.1094E+04
      2.028  0.2505E+02  0.1095E+04
      2.105  0.2726E+02  0.1098E+04
      2.183  0.3137E+02  0.1100E+04
      2.260  0.2919E+02  0.1102E+04
      2.338  0.2745E+02  0.1104E+04
      2.416  0.2993E+02  0.1107E+04
      2.493  0.3966E+02  0.1110E+04
      2.571  0.4296E+02  0.1113E+04
      2.648  0.3060E+02  0.1116E+04
      2.726  0.2120E+02  0.1117E+04
      2.803  0.1584E+02  0.1118E+04
      2.881  0.2186E+02  0.1120E+04
      2.959  0.3247E+02  0.1123E+04
      3.036  0.2598E+02  0.1125E+04
      3.114  0.2361E+02  0.1126E+04
      3.191  0.2779E+02  0.1129E+04
      3.269  0.2237E+02  0.1130E+04
      3.346  0.1944E+02  0.1132E+04
      3.424  0.2140E+02  0.1134E+04
      3.502  0.2140E+02  0.1135E+04
      3.579  0.2727E+02  0.1137E+04
      3.657  0.3324E+02  0.1140E+04
      3.734  0.3411E+02  0.1143E+04
      3.812  0.1987E+02  0.1144E+04
      3.889  0.2666E+02  0.1146E+04
      3.967  0.3997E+02  0.1149E+04
      4.045  0.3705E+02  0.1152E+04
      4.122  0.3302E+02  0.1155E+04
      4.200  0.3268E+02  0.1157E+04
      4.277  0.2157E+02  0.1159E+04
      4.355  0.9053E+01  0.1160E+04
      4.432  0.1655E+02  0.1161E+04
      4.510  0.2584E+02  0.1163E+04
      4.588  0.2921E+02  0.1165E+04
      4.665  0.3996E+02  0.1168E+04
      4.743  0.4116E+02  0.1171E+04
      4.820  0.3460E+02  0.1174E+04
      4.898  0.4396E+02  0.1178E+04
      4.975  0.5338E+02  0.1182E+04
      5.053  0.5425E+02  0.1186E+04
      5.130  0.5840E+02  0.1190E+04
      5.208  0.4575E+02  0.1194E+04
      5.286  0.3981E+02  0.1197E+04
      5.363  0.4615E+02  0.1201E+04
      5.441  0.5216E+02  0.1205E+04
      5.518  0.4867E+02  0.1208E+04
      5.596  0.5485E+02  0.1213E+04
      5.673  0.6526E+02  0.1218E+04
      5.751  0.6194E+02  0.1223E+04
      5.829  0.5171E+02  0.1227E+04
      5.906  0.4956E+02  0.1230E+04
      5.984  0.4421E+02  0.1234E+04
      6.061  0.4401E+02  0.1237E+04
      6.139  0.4679E+02  0.1241E+04
      6.216  0.5723E+02  0.1245E+04
      6.294  0.6825E+02  0.1251E+04
      6.372  0.6162E+02  0.1255E+04
      6.449  0.5806E+02  0.1260E+04
      6.527  0.6921E+02  0.1265E+04
      6.604  0.6796E+02  0.1271E+04
      6.682  0.5381E+02  0.1275E+04
      6.759  0.5090E+02  0.1279E+04
      6.837  0.6110E+02  0.1283E+04
      6.915  0.5526E+02  0.1288E+04
      6.992  0.4744E+02  0.1291E+04
      7.070  0.4275E+02  0.1295E+04
      7.147  0.4684E+02  0.1298E+04
      7.225  0.5828E+02  0.1303E+04
      7.302  0.6328E+02  0.1308E+04
      7.380  0.6412E+02  0.1313E+04
      7.458  0.5197E+02  0.1317E+04
      7.535  0.4396E+02  0.1320E+04
      7.613  0.5027E+02  0.1324E+04
      7.690  0.4721E+02  0.1328E+04
      7.768  0.4406E+02  0.1331E+04
      7.845  0.5458E+02  0.1335E+04
      7.923  0.6515E+02  0.1340E+04
      8.001  0.6596E+02  0.1346E+04
      8.078  0.6838E+02  0.1351E+04
      8.156  0.6482E+02  0.1356E+04
      8.233  0.6736E+02  0.1361E+04
      8.311  0.6616E+02  0.1366E+04
      8.388  0.6232E+02  0.1371E+04
      8.466  0.7419E+02  0.1377E+04
      8.544  0.8050E+02  0.1383E+04
      8.621  0.7660E+02  0.1389E+04
      8.699  0.7352E+02  0.1395E+04
      8.776  0.6386E+02  0.1400E+04
      8.854  0.5648E+02  0.1404E+04
      8.931  0.6656E+02  0.1409E+04
      9.009  0.8668E+02  0.1416E+04
      9.086  0.8795E+02  0.1423E+04
      9.164  0.7589E+02  0.1429E+04
      9.242  0.6692E+02  0.1434E+04
      9.319  0.5860E+02  0.1438E+04
      9.397  0.6146E+02  0.1443E+04
      9.474  0.7715E+02  0.1449E+04
      9.552  0.8310E+02  0.1456E+04
      9.629  0.7971E+02  0.1462E+04
      9.707  0.7733E+02  0.1468E+04
      9.785  0.7987E+02  0.1474E+04
      9.862  0.7928E+02  0.1480E+04
      9.940  0.6756E+02  0.1485E+04
     10.017  0.6783E+02  0.1491E+04
     10.095  0.7472E+02  0.1496E+04
     10.172  0.7816E+02  0.1502E+04
     10.250  0.7826E+02  0.1509E+04
     10.328  0.7521E+02  0.1514E+04
     10.405  0.7838E+02  0.1520E+04
     10.483  0.9085E+02  0.1527E+04
     10.560  0.1010E+03  0.1535E+04
     10.638  0.9649E+02  0.1543E+04
     10.715  0.8877E+02  0.1550E+04
     10.793  0.8615E+02  0.1556E+04
     10.871  0.8194E+02  0.1563E+04
     10.948  0.8270E+02  0.1569E+04
     11.026  0.8732E+02  0.1576E+04
     11.103  0.8622E+02  0.1583E+04
     11.181  0.8365E+02  0.1589E+04
     11.258  0.8051E+02  0.1595E+04
     11.336  0.8063E+02  0.1602E+04
     11.414  0.8718E+02  0.1608E+04
     11.491  0.7883E+02  0.1614E+04
     11.569  0.7600E+02  0.1620E+04
     11.646  0.8542E+02  0.1627E+04
     11.724  0.8268E+02  0.1633E+04
     11.801  0.8639E+02  0.1640E+04
     11.879  0.1004E+03  0.1648E+04
     11.957  0.1063E+03  0.1656E+04
     12.034  0.1008E+03  0.1664E+04
     12.112  0.9628E+02  0.1671E+04
     12.189  0.8589E+02  0.1678E+04
     12.267  0.7537E+02  0.1684E+04
     12.344  0.8242E+02  0.1690E+04
     12.422  0.9218E+02  0.1697E+04
     12.500  0.8993E+02  0.1704E+04
     12.577  0.8655E+02  0.1711E+04
     12.655  0.7589E+02  0.1717E+04
     12.732  0.8037E+02  0.1723E+04
     12.810  0.8649E+02  0.1730E+04
     12.887  0.9187E+02  0.1737E+04
     12.965  0.1004E+03  0.1745E+04
     13.042  0.8529E+02  0.1752E+04
     13.120  0.5549E+02  0.1756E+04
     13.198  0.3210E+02  0.1758E+04
     13.275  0.1768E+02  0.1760E+04
     13.353  0.4680E+01  0.1760E+04
     13.430 -0.4484E+00  0.1760E+04
     13.508 -0.2648E+00  0.1760E+04
     13.585 -0.2219E-01  0.1760E+04
     13.663 -0.5539E-03  0.1760E+04
     13.741 -0.4305E-05  0.1760E+04
     13.818 -0.1022E-07  0.1760E+04
     13.896 -0.7278E-11  0.1760E+04
     13.973 -0.1431E-14  0.1760E+04
     14.051  0.0000E+00  0.1760E+04
     14.128  0.0000E+00  0.1760E+04
     14.206  0.0000E+00  0.1760E+04
     14.284  0.0000E+00  0.1760E+04
     14.361  0.0000E+00  0.1760E+04
     14.36116631     -8.90944174  301     -0.82685055      1.00000000
     -8.909  0.0000E+00  0.0000E+00  0.0000E+00
     -8.832  0.0000E+00  0.0000E+00  0.0000E+00
     -8.754  0.0000E+00  0.0000E+00  0.0000E+00
     -8.677 -0.1756E-31 -0.1775E-32 -0.4770E-33
     -8.599 -0.3155E-26 -0.3189E-27 -0.8573E-28
     -8.522 -0.1684E-21 -0.1702E-22 -0.4575E-23
     -8.444 -0.2661E-17 -0.2690E-18 -0.7230E-19
     -8.366 -0.1195E-13 -0.1208E-14 -0.3246E-15
     -8.289 -0.1610E-10 -0.1627E-11 -0.4375E-12
     -8.211 -0.6236E-08 -0.6304E-09 -0.1695E-09
     -8.134 -0.6743E-06 -0.6818E-07 -0.1838E-07
     -8.056 -0.1897E-04 -0.1923E-05 -0.5275E-06
     -7.979 -0.1104E-03 -0.1146E-04 -0.3613E-05
     -7.901  0.1086E-03  0.7777E-05 -0.3753E-05
     -7.823  0.2080E-02  0.2142E-03  0.6470E-04
     -7.746  0.8439E-02  0.9202E-03  0.3686E-03
     -7.668  0.8061E-02  0.8791E-03  0.3440E-03
     -7.591  0.2584E-02  0.3087E-03  0.1884E-03
     -7.513  0.1161E-01  0.1451E-02  0.1075E-02
     -7.436  0.1472E-01  0.1867E-02  0.1494E-02
     -7.358  0.7629E-02  0.1022E-02  0.1060E-02
     -7.280  0.1173E-01  0.1031E-02  0.1125E-02
     -7.203  0.4924E-01  0.4554E-02  0.5026E-02
     -7.125  0.5079E-01  0.5358E-02  0.6794E-02
     -7.048  0.2296E-01  0.3152E-02  0.6898E-02
     -6.970  0.5308E-01  0.6258E-02  0.1382E-01
     -6.893  0.4142E-01  0.5076E-02  0.1021E-01
     -6.815  0.1370E-01  0.1934E-02  0.3612E-02
     -6.738  0.3872E-01  0.5434E-02  0.3175E-01
     -6.660  0.7632E-01  0.1152E-01  0.9274E-01
     -6.582  0.9811E-01  0.1478E-01  0.2047E+00
     -6.505  0.1747E+00  0.2344E-01  0.6585E+00
     -6.427  0.2237E+00  0.4162E-01  0.1663E+01
     -6.350  0.1629E+00  0.4968E-01  0.2375E+01
     -6.272  0.1074E+00  0.3729E-01  0.2081E+01
     -6.195  0.1049E+00  0.3115E-01  0.1891E+01
     -6.117  0.1200E+00  0.3309E-01  0.2343E+01
     -6.039  0.1270E+00  0.3134E-01  0.2221E+01
     -5.962  0.1021E+00  0.3119E-01  0.1980E+01
     -5.884  0.8336E-01  0.3326E-01  0.2205E+01
     -5.807  0.8356E-01  0.3484E-01  0.2198E+01
     -5.729  0.7603E-01  0.3845E-01  0.2099E+01
     -5.652  0.6818E-01  0.4065E-01  0.2397E+01
     -5.574  0.7000E-01  0.3790E-01  0.2531E+01
     -5.496  0.6414E-01  0.3554E-01  0.2553E+01
     -5.419  0.4297E-01  0.3373E-01  0.2678E+01
     -5.341  0.2967E-01  0.2892E-01  0.2486E+01
     -5.264  0.3200E-01  0.2434E-01  0.2242E+01
     -5.186  0.3556E-01  0.2431E-01  0.2376E+01
     -5.109  0.3200E-01  0.2642E-01  0.2526E+01
     -5.031  0.2650E-01  0.2750E-01  0.2718E+01
     -4.953  0.2556E-01  0.2585E-01  0.2995E+01
     -4.876  0.2752E-01  0.2480E-01  0.3291E+01
     -4.798  0.2910E-01  0.2846E-01  0.3520E+01
     -4.721  0.3398E-01  0.3271E-01  0.3408E+01
     -4.643  0.3771E-01  0.3804E-01  0.3268E+01
     -4.566  0.4330E-01  0.4023E-01  0.3413E+01
     -4.488  0.4437E-01  0.3811E-01  0.3493E+01
     -4.410  0.3805E-01  0.3296E-01  0.3284E+01
     -4.333  0.4040E-01  0.2870E-01  0.3254E+01
     -4.255  0.4343E-01  0.2914E-01  0.3617E+01
     -4.178  0.3422E-01  0.3029E-01  0.4041E+01
     -4.100  0.3373E-01  0.2711E-01  0.4395E+01
     -4.023  0.4348E-01  0.2174E-01  0.4683E+01
     -3.945  0.3991E-01  0.1883E-01  0.4346E+01
     -3.867  0.3877E-01  0.1740E-01  0.3597E+01
     -3.790  0.4486E-01  0.1979E-01  0.2527E+01
     -3.712  0.4641E-01  0.2385E-01  0.1740E+01
     -3.635  0.4199E-01  0.2023E-01  0.1467E+01
     -3.557  0.3906E-01  0.1533E-01  0.1098E+01
     -3.480  0.3611E-01  0.1487E-01  0.7177E+00
     -3.402  0.3059E-01  0.1531E-01  0.5709E+00
     -3.324  0.3447E-01  0.1479E-01  0.5471E+00
     -3.247  0.4374E-01  0.1588E-01  0.5489E+00
     -3.169  0.4828E-01  0.1698E-01  0.4752E+00
     -3.092  0.5487E-01  0.1956E-01  0.3714E+00
     -3.014  0.6296E-01  0.2304E-01  0.3327E+00
     -2.937  0.6702E-01  0.2601E-01  0.3421E+00
     -2.859  0.5876E-01  0.2878E-01  0.3361E+00
     -2.782  0.5382E-01  0.2849E-01  0.3243E+00
     -2.704  0.6097E-01  0.2930E-01  0.3098E+00
     -2.626  0.5610E-01  0.3412E-01  0.2651E+00
     -2.549  0.4502E-01  0.3998E-01  0.2365E+00
     -2.471  0.4803E-01  0.4140E-01  0.2325E+00
     -2.394  0.5106E-01  0.3388E-01  0.2382E+00
     -2.316  0.4935E-01  0.2935E-01  0.2357E+00
     -2.239  0.5005E-01  0.3327E-01  0.2406E+00
     -2.161  0.4596E-01  0.3703E-01  0.2807E+00
     -2.083  0.4933E-01  0.3363E-01  0.2818E+00
     -2.006  0.5515E-01  0.3197E-01  0.2615E+00
     -1.928  0.5193E-01  0.3405E-01  0.2295E+00
     -1.851  0.5227E-01  0.3283E-01  0.1923E+00
     -1.773  0.4923E-01  0.3376E-01  0.1762E+00
     -1.696  0.4402E-01  0.3931E-01  0.1796E+00
     -1.618  0.4685E-01  0.4396E-01  0.1770E+00
     -1.540  0.4536E-01  0.4295E-01  0.1684E+00
     -1.463  0.3554E-01  0.3792E-01  0.1527E+00
     -1.385  0.3704E-01  0.3447E-01  0.1531E+00
     -1.308  0.4512E-01  0.3847E-01  0.1636E+00
     -1.230  0.5586E-01  0.4156E-01  0.1669E+00
     -1.153  0.6873E-01  0.4265E-01  0.1734E+00
     -1.075  0.6656E-01  0.4098E-01  0.1646E+00
     -0.997  0.4695E-01  0.4059E-01  0.1243E+00
     -0.920  0.2761E-01  0.3704E-01  0.9381E-01
     -0.842  0.2252E-01  0.4740E-01  0.9523E-01
     -0.765  0.2401E-01  0.5363E-01  0.9390E-01
     -0.687  0.2304E-01  0.4207E-01  0.7741E-01
     -0.610  0.2337E-01  0.3932E-01  0.6461E-01
     -0.532  0.2523E-01  0.4816E-01  0.6502E-01
     -0.454  0.2766E-01  0.5138E-01  0.6897E-01
     -0.377  0.3052E-01  0.4509E-01  0.5214E-01
     -0.299  0.3498E-01  0.4395E-01  0.4073E-01
     -0.222  0.4281E-01  0.5398E-01  0.5095E-01
     -0.144  0.4419E-01  0.5679E-01  0.5595E-01
     -0.067  0.3977E-01  0.5480E-01  0.5099E-01
      0.011  0.2684E-01  0.4241E-01  0.3840E-01
      0.089  0.3089E-01  0.4419E-01  0.3116E-01
      0.166  0.5014E-01  0.7311E-01  0.4210E-01
      0.244  0.4671E-01  0.8091E-01  0.5478E-01
      0.321  0.4409E-01  0.8185E-01  0.6716E-01
      0.399  0.4545E-01  0.8361E-01  0.6897E-01
      0.476  0.2875E-01  0.6443E-01  0.4820E-01
      0.554  0.1518E-01  0.2936E-01  0.3246E-01
      0.632  0.3044E-01  0.3333E-01  0.3305E-01
      0.709  0.3328E-01  0.6565E-01  0.3616E-01
      0.787  0.2723E-01  0.5741E-01  0.4023E-01
      0.864  0.2458E-01  0.4492E-01  0.4597E-01
      0.942  0.2017E-01  0.8282E-01  0.5493E-01
      1.019  0.2671E-01  0.8630E-01  0.5761E-01
      1.097  0.3824E-01  0.7792E-01  0.5585E-01
      1.174  0.4943E-01  0.9701E-01  0.5618E-01
      1.252  0.5558E-01  0.1289E+00  0.6629E-01
      1.330  0.4173E-01  0.1203E+00  0.4723E-01
      1.407  0.1837E-01  0.6593E-01  0.2163E-01
      1.485  0.1425E-01  0.3678E-01  0.2287E-01
      1.562  0.2660E-01  0.2532E-01  0.3761E-01
      1.640  0.3218E-01  0.3520E-01  0.4750E-01
      1.717  0.2934E-01  0.8647E-01  0.5549E-01
      1.795  0.2830E-01  0.1042E+00  0.5335E-01
      1.873  0.1700E-01  0.7731E-01  0.4000E-01
      1.950  0.1341E-01  0.7088E-01  0.3839E-01
      2.028  0.2011E-01  0.7125E-01  0.3990E-01
      2.105  0.3169E-01  0.8758E-01  0.5516E-01
      2.183  0.3062E-01  0.7824E-01  0.5400E-01
      2.260  0.2948E-01  0.7063E-01  0.4392E-01
      2.338  0.3140E-01  0.8466E-01  0.5215E-01
      2.416  0.2582E-01  0.9416E-01  0.5760E-01
      2.493  0.3483E-01  0.1127E+00  0.5445E-01
      2.571  0.4184E-01  0.1063E+00  0.5644E-01
      2.648  0.4375E-01  0.7691E-01  0.5403E-01
      2.726  0.3522E-01  0.6421E-01  0.5061E-01
      2.803  0.2017E-01  0.3704E-01  0.3698E-01
      2.881  0.1145E-01  0.3993E-01  0.3451E-01
      2.959  0.1222E-01  0.5860E-01  0.3827E-01
      3.036  0.1196E-01  0.5104E-01  0.2857E-01
      3.114  0.1217E-01  0.5330E-01  0.3164E-01
      3.191  0.1419E-01  0.6028E-01  0.4023E-01
      3.269  0.1345E-01  0.4757E-01  0.2861E-01
      3.346  0.1299E-01  0.3705E-01  0.2607E-01
      3.424  0.1146E-01  0.4399E-01  0.3023E-01
      3.502  0.1501E-01  0.5155E-01  0.3194E-01
      3.579  0.2752E-01  0.7038E-01  0.4639E-01
      3.657  0.3418E-01  0.9019E-01  0.6026E-01
      3.734  0.2990E-01  0.9497E-01  0.5858E-01
      3.812  0.1094E-01  0.5085E-01  0.2618E-01
      3.889  0.1474E-01  0.4067E-01  0.2816E-01
      3.967  0.2439E-01  0.6045E-01  0.4612E-01
      4.045  0.2460E-01  0.5588E-01  0.3922E-01
      4.122  0.2518E-01  0.4271E-01  0.3153E-01
      4.200  0.2985E-01  0.4396E-01  0.4108E-01
      4.277  0.2788E-01  0.3945E-01  0.3394E-01
      4.355  0.1341E-01  0.2312E-01  0.1394E-01
      4.432  0.8838E-02  0.1132E-01  0.1281E-01
      4.510  0.1326E-01  0.6203E-02  0.1534E-01
      4.588  0.2555E-01  0.2612E-01  0.3069E-01
      4.665  0.4237E-01  0.5958E-01  0.4598E-01
      4.743  0.4647E-01  0.6038E-01  0.4561E-01
      4.820  0.4825E-01  0.4340E-01  0.5275E-01
      4.898  0.6030E-01  0.5744E-01  0.6785E-01
      4.975  0.7728E-01  0.5956E-01  0.7813E-01
      5.053  0.1219E+00  0.4303E-01  0.8620E-01
      5.130  0.1910E+00  0.4406E-01  0.9398E-01
      5.208  0.2005E+00  0.5222E-01  0.8159E-01
      5.286  0.1189E+00  0.4693E-01  0.6705E-01
      5.363  0.1141E+00  0.4675E-01  0.6690E-01
      5.441  0.1957E+00  0.7349E-01  0.8533E-01
      5.518  0.1556E+00  0.7774E-01  0.8269E-01
      5.596  0.1355E+00  0.8234E-01  0.7880E-01
      5.673  0.1307E+00  0.9104E-01  0.7124E-01
      5.751  0.1002E+00  0.8142E-01  0.6213E-01
      5.829  0.7570E-01  0.6270E-01  0.5928E-01
      5.906  0.7506E-01  0.6318E-01  0.5699E-01
      5.984  0.7422E-01  0.6717E-01  0.5597E-01
      6.061  0.7513E-01  0.7400E-01  0.6144E-01
      6.139  0.6551E-01  0.8507E-01  0.5306E-01
      6.216  0.5995E-01  0.1016E+00  0.5194E-01
      6.294  0.6045E-01  0.9744E-01  0.5982E-01
      6.372  0.5829E-01  0.9156E-01  0.5671E-01
      6.449  0.3926E-01  0.8593E-01  0.4552E-01
      6.527  0.3251E-01  0.8821E-01  0.4353E-01
      6.604  0.5251E-01  0.1145E+00  0.5495E-01
      6.682  0.5294E-01  0.1155E+00  0.5299E-01
      6.759  0.3311E-01  0.9328E-01  0.4672E-01
      6.837  0.3259E-01  0.8137E-01  0.4666E-01
      6.915  0.3854E-01  0.8909E-01  0.4190E-01
      6.992  0.4125E-01  0.8695E-01  0.4097E-01
      7.070  0.4450E-01  0.6749E-01  0.3698E-01
      7.147  0.4583E-01  0.8166E-01  0.3556E-01
      7.225  0.4364E-01  0.1049E+00  0.4364E-01
      7.302  0.4652E-01  0.1005E+00  0.4968E-01
      7.380  0.5427E-01  0.8945E-01  0.4885E-01
      7.458  0.4947E-01  0.7358E-01  0.4079E-01
      7.535  0.4965E-01  0.7027E-01  0.4347E-01
      7.613  0.7243E-01  0.7627E-01  0.5468E-01
      7.690  0.6917E-01  0.7090E-01  0.5072E-01
      7.768  0.5937E-01  0.7438E-01  0.5101E-01
      7.845  0.7099E-01  0.9305E-01  0.6745E-01
      7.923  0.6472E-01  0.1075E+00  0.7178E-01
      8.001  0.5585E-01  0.9274E-01  0.5989E-01
      8.078  0.6114E-01  0.8487E-01  0.5924E-01
      8.156  0.6334E-01  0.7664E-01  0.5801E-01
      8.233  0.7461E-01  0.7393E-01  0.6089E-01
      8.311  0.6107E-01  0.7079E-01  0.6106E-01
      8.388  0.5378E-01  0.6939E-01  0.5371E-01
      8.466  0.7287E-01  0.9392E-01  0.6185E-01
      8.544  0.7706E-01  0.1027E+00  0.7091E-01
      8.621  0.7750E-01  0.9563E-01  0.7574E-01
      8.699  0.7471E-01  0.9968E-01  0.8341E-01
      8.776  0.6058E-01  0.8686E-01  0.6820E-01
      8.854  0.4576E-01  0.7109E-01  0.5030E-01
      8.931  0.5022E-01  0.8583E-01  0.5643E-01
      9.009  0.7143E-01  0.1242E+00  0.9064E-01
      9.086  0.6738E-01  0.1308E+00  0.1070E+00
      9.164  0.6295E-01  0.1064E+00  0.8346E-01
      9.242  0.7368E-01  0.7836E-01  0.6231E-01
      9.319  0.5713E-01  0.7136E-01  0.5636E-01
      9.397  0.4096E-01  0.8999E-01  0.5440E-01
      9.474  0.4519E-01  0.1098E+00  0.5739E-01
      9.552  0.5030E-01  0.1115E+00  0.6706E-01
      9.629  0.5358E-01  0.1092E+00  0.7451E-01
      9.707  0.6985E-01  0.1163E+00  0.7251E-01
      9.785  0.7665E-01  0.1312E+00  0.7331E-01
      9.862  0.6761E-01  0.1261E+00  0.7113E-01
      9.940  0.4933E-01  0.1002E+00  0.5952E-01
     10.017  0.4147E-01  0.9568E-01  0.7262E-01
     10.095  0.3975E-01  0.1110E+00  0.8352E-01
     10.172  0.4013E-01  0.1270E+00  0.8691E-01
     10.250  0.4224E-01  0.1385E+00  0.8451E-01
     10.328  0.4053E-01  0.1286E+00  0.6858E-01
     10.405  0.4515E-01  0.1066E+00  0.5808E-01
     10.483  0.4458E-01  0.1078E+00  0.6187E-01
     10.560  0.4286E-01  0.1336E+00  0.7696E-01
     10.638  0.4832E-01  0.1492E+00  0.7447E-01
     10.715  0.5329E-01  0.1367E+00  0.7275E-01
     10.793  0.5910E-01  0.1146E+00  0.8474E-01
     10.871  0.4786E-01  0.1057E+00  0.8157E-01
     10.948  0.4218E-01  0.1169E+00  0.7363E-01
     11.026  0.4417E-01  0.1255E+00  0.7415E-01
     11.103  0.4704E-01  0.1258E+00  0.7558E-01
     11.181  0.4747E-01  0.1129E+00  0.7273E-01
     11.258  0.4705E-01  0.9254E-01  0.6661E-01
     11.336  0.3755E-01  0.1048E+00  0.6978E-01
     11.414  0.3225E-01  0.1391E+00  0.8257E-01
     11.491  0.2755E-01  0.1357E+00  0.7762E-01
     11.569  0.2580E-01  0.1364E+00  0.6894E-01
     11.646  0.3416E-01  0.1417E+00  0.8038E-01
     11.724  0.3640E-01  0.1333E+00  0.8220E-01
     11.801  0.2779E-01  0.1408E+00  0.8221E-01
     11.879  0.3090E-01  0.1657E+00  0.9346E-01
     11.957  0.3649E-01  0.1878E+00  0.9971E-01
     12.034  0.3846E-01  0.1707E+00  0.8588E-01
     12.112  0.4529E-01  0.1401E+00  0.6977E-01
     12.189  0.3845E-01  0.1164E+00  0.6100E-01
     12.267  0.2949E-01  0.9818E-01  0.5499E-01
     12.344  0.3030E-01  0.1178E+00  0.6397E-01
     12.422  0.3005E-01  0.1475E+00  0.7451E-01
     12.500  0.3213E-01  0.1309E+00  0.8125E-01
     12.577  0.3585E-01  0.1199E+00  0.8822E-01
     12.655  0.3325E-01  0.1108E+00  0.7551E-01
     12.732  0.3096E-01  0.1248E+00  0.6986E-01
     12.810  0.2810E-01  0.1352E+00  0.7910E-01
     12.887  0.3745E-01  0.1348E+00  0.9155E-01
     12.965  0.3587E-01  0.1583E+00  0.8955E-01
     13.042  0.2695E-01  0.1717E+00  0.7240E-01
     13.120  0.1753E-01  0.1224E+00  0.5078E-01
     13.198  0.7132E-02  0.5868E-01  0.2785E-01
     13.275  0.1972E-02  0.2593E-01  0.1174E-01
     13.353  0.1478E-03  0.6156E-02  0.2900E-02
     13.430 -0.9705E-04 -0.9334E-03 -0.1972E-03
     13.508 -0.2252E-04 -0.3826E-03 -0.1845E-03
     13.585 -0.1448E-05 -0.2573E-04 -0.1905E-04
     13.663 -0.3062E-07 -0.5138E-06 -0.5442E-06
     13.741 -0.2132E-09 -0.3326E-08 -0.4553E-08
     13.818 -0.4729E-12 -0.6972E-11 -0.1121E-10
     13.896 -0.3242E-15 -0.4608E-14 -0.8124E-14
     13.973 -0.6080E-19 -0.8241E-18 -0.1623E-17
     14.051  0.0000E+00  0.0000E+00  0.0000E+00
     14.128  0.0000E+00  0.0000E+00  0.0000E+00
     14.206  0.0000E+00  0.0000E+00  0.0000E+00
     14.284  0.0000E+00  0.0000E+00  0.0000E+00
     14.361  0.0000E+00  0.0000E+00  0.0000E+00
     14.36116631     -8.90944174  301     -0.82685055      1.00000000
     -8.909  0.0000E+00  0.0000E+00  0.0000E+00
     -8.832  0.0000E+00  0.0000E+00  0.0000E+00
     -8.754  0.0000E+00  0.0000E+00  0.0000E+00
     -8.677 -0.1463E-31 -0.1509E-32 -0.3778E-33
     -8.599 -0.2630E-26 -0.2712E-27 -0.6790E-28
     -8.522 -0.1403E-21 -0.1447E-22 -0.3624E-23
     -8.444 -0.2218E-17 -0.2287E-18 -0.5727E-19
     -8.366 -0.9957E-14 -0.1027E-14 -0.2571E-15
     -8.289 -0.1342E-10 -0.1384E-11 -0.3465E-12
     -8.211 -0.5198E-08 -0.5360E-09 -0.1343E-09
     -8.134 -0.5619E-06 -0.5797E-07 -0.1456E-07
     -8.056 -0.1580E-04 -0.1634E-05 -0.4185E-06
     -7.979 -0.9146E-04 -0.9708E-05 -0.2897E-05
     -7.901  0.9698E-04  0.6978E-05 -0.3354E-05
     -7.823  0.1726E-02  0.1817E-03  0.5170E-04
     -7.746  0.6902E-02  0.7750E-03  0.2998E-03
     -7.668  0.6619E-02  0.7424E-03  0.2782E-03
     -7.591  0.2035E-02  0.2540E-03  0.1549E-03
     -7.513  0.8368E-02  0.1146E-02  0.9426E-03
     -7.436  0.1040E-01  0.1470E-02  0.1304E-02
     -7.358  0.6798E-02  0.8878E-03  0.7353E-03
     -7.280  0.9738E-02  0.8529E-03  0.8331E-03
     -7.203  0.3409E-01  0.3349E-02  0.4385E-02
     -7.125  0.3814E-01  0.4133E-02  0.5203E-02
     -7.048  0.2245E-01  0.2833E-02  0.4101E-02
     -6.970  0.3217E-01  0.4712E-02  0.1113E-01
     -6.893  0.2733E-01  0.3803E-02  0.8246E-02
     -6.815  0.1546E-01  0.1777E-02  0.1922E-02
     -6.738  0.2491E-01  0.3809E-02  0.2209E-01
     -6.660  0.4952E-01  0.8323E-02  0.7093E-01
     -6.582  0.7031E-01  0.1263E-01  0.1429E+00
     -6.505  0.9669E-01  0.1932E-01  0.3247E+00
     -6.427  0.1175E+00  0.2799E-01  0.7521E+00
     -6.350  0.1301E+00  0.3218E-01  0.1196E+01
     -6.272  0.1347E+00  0.3066E-01  0.1287E+01
     -6.195  0.1517E+00  0.3031E-01  0.1445E+01
     -6.117  0.1696E+00  0.3527E-01  0.2012E+01
     -6.039  0.1449E+00  0.4054E-01  0.2269E+01
     -5.962  0.1063E+00  0.3688E-01  0.2068E+01
     -5.884  0.8974E-01  0.3064E-01  0.2016E+01
     -5.807  0.1105E+00  0.2947E-01  0.2162E+01
     -5.729  0.1170E+00  0.2943E-01  0.2304E+01
     -5.652  0.9639E-01  0.2708E-01  0.2470E+01
     -5.574  0.6607E-01  0.2382E-01  0.2472E+01
     -5.496  0.4548E-01  0.2599E-01  0.2881E+01
     -5.419  0.4675E-01  0.3008E-01  0.3198E+01
     -5.341  0.5280E-01  0.2890E-01  0.2674E+01
     -5.264  0.4859E-01  0.2636E-01  0.2139E+01
     -5.186  0.4200E-01  0.2587E-01  0.2208E+01
     -5.109  0.4926E-01  0.2774E-01  0.2784E+01
     -5.031  0.5149E-01  0.2711E-01  0.3100E+01
     -4.953  0.4072E-01  0.2389E-01  0.2906E+01
     -4.876  0.2869E-01  0.2418E-01  0.2776E+01
     -4.798  0.2460E-01  0.2433E-01  0.3209E+01
     -4.721  0.2857E-01  0.2464E-01  0.3468E+01
     -4.643  0.3082E-01  0.3174E-01  0.3239E+01
     -4.566  0.3273E-01  0.4139E-01  0.3490E+01
     -4.488  0.3110E-01  0.3871E-01  0.3804E+01
     -4.410  0.2518E-01  0.2935E-01  0.3613E+01
     -4.333  0.2734E-01  0.2643E-01  0.3708E+01
     -4.255  0.3336E-01  0.2692E-01  0.4050E+01
     -4.178  0.3580E-01  0.2704E-01  0.4728E+01
     -4.100  0.3476E-01  0.2680E-01  0.5202E+01
     -4.023  0.3625E-01  0.2885E-01  0.4800E+01
     -3.945  0.3645E-01  0.2895E-01  0.3732E+01
     -3.867  0.3759E-01  0.2770E-01  0.2957E+01
     -3.790  0.3617E-01  0.3167E-01  0.2629E+01
     -3.712  0.3349E-01  0.3216E-01  0.1932E+01
     -3.635  0.4207E-01  0.2143E-01  0.1153E+01
     -3.557  0.4460E-01  0.1686E-01  0.6157E+00
     -3.480  0.5666E-01  0.1567E-01  0.4782E+00
     -3.402  0.6558E-01  0.1574E-01  0.5434E+00
     -3.324  0.6469E-01  0.1811E-01  0.5819E+00
     -3.247  0.7685E-01  0.2244E-01  0.5827E+00
     -3.169  0.8014E-01  0.2397E-01  0.5331E+00
     -3.092  0.7110E-01  0.2418E-01  0.4866E+00
     -3.014  0.7014E-01  0.2678E-01  0.4775E+00
     -2.937  0.8516E-01  0.3052E-01  0.4446E+00
     -2.859  0.7371E-01  0.3257E-01  0.4198E+00
     -2.782  0.6052E-01  0.3327E-01  0.4289E+00
     -2.704  0.6548E-01  0.3493E-01  0.4594E+00
     -2.626  0.6151E-01  0.3123E-01  0.4336E+00
     -2.549  0.5629E-01  0.2888E-01  0.3832E+00
     -2.471  0.5617E-01  0.3524E-01  0.3384E+00
     -2.394  0.5416E-01  0.3984E-01  0.3143E+00
     -2.316  0.5188E-01  0.4018E-01  0.3007E+00
     -2.239  0.4312E-01  0.3956E-01  0.2751E+00
     -2.161  0.4448E-01  0.3981E-01  0.2634E+00
     -2.083  0.4646E-01  0.4185E-01  0.2457E+00
     -2.006  0.4512E-01  0.4395E-01  0.2370E+00