  96  96   1   0
  0.3577461E+02  0.1122168E-08  0.1121514E-08  0.3148039E-08  0.0000000E+00
  1.000000000000000E-004
  CAR 
 unknown system                          
     14.57944496     -8.75022807  301     -0.60669730      1.00000000
     -8.750  0.0000E+00  0.0000E+00
     -8.672  0.0000E+00  0.0000E+00
     -8.595  0.0000E+00  0.0000E+00
     -8.517 -0.7264E-29 -0.5649E-30
     -8.439 -0.1389E-23 -0.1080E-24
     -8.361 -0.7839E-19 -0.6096E-20
     -8.284 -0.1302E-14 -0.1013E-15
     -8.206 -0.6108E-11 -0.4751E-12
     -8.128 -0.8545E-08 -0.6650E-09
     -8.050 -0.3415E-05 -0.2663E-06
     -7.973 -0.3783E-03 -0.2969E-04
     -7.895 -0.1077E-01 -0.8674E-03
     -7.817 -0.6025E-01 -0.5553E-02
     -7.739  0.8709E-01  0.1219E-02
     -7.662  0.1084E+01  0.8549E-01
     -7.584  0.4535E+01  0.4382E+00
     -7.506  0.4899E+01  0.8192E+00
     -7.428  0.1072E+01  0.9025E+00
     -7.350  0.4817E+01  0.1277E+01
     -7.273  0.7235E+01  0.1840E+01
     -7.195  0.4658E+01  0.2202E+01
     -7.117  0.2359E+01  0.2385E+01
     -7.039  0.4128E+01  0.2706E+01
     -6.962  0.1141E+02  0.3594E+01
     -6.884  0.1007E+02  0.4377E+01
     -6.806  0.9043E+01  0.5080E+01
     -6.728  0.1435E+02  0.6196E+01
     -6.651  0.7713E+01  0.6796E+01
     -6.573  0.1624E+01  0.6922E+01
     -6.495  0.1676E+02  0.8225E+01
     -6.417  0.5006E+02  0.1212E+02
     -6.339  0.8078E+02  0.1840E+02
     -6.262  0.1061E+03  0.2665E+02
     -6.184  0.1275E+03  0.3657E+02
     -6.106  0.1357E+03  0.4712E+02
     -6.028  0.1462E+03  0.5849E+02
     -5.951  0.1624E+03  0.7111E+02
     -5.873  0.1816E+03  0.8524E+02
     -5.795  0.1978E+03  0.1006E+03
     -5.717  0.2069E+03  0.1167E+03
     -5.640  0.2042E+03  0.1326E+03
     -5.562  0.2033E+03  0.1484E+03
     -5.484  0.2094E+03  0.1647E+03
     -5.406  0.2081E+03  0.1809E+03
     -5.329  0.2010E+03  0.1965E+03
     -5.251  0.1977E+03  0.2119E+03
     -5.173  0.1858E+03  0.2263E+03
     -5.095  0.1746E+03  0.2399E+03
     -5.017  0.1665E+03  0.2528E+03
     -4.940  0.1692E+03  0.2660E+03
     -4.862  0.1826E+03  0.2802E+03
     -4.784  0.1864E+03  0.2947E+03
     -4.706  0.1930E+03  0.3097E+03
     -4.629  0.2061E+03  0.3257E+03
     -4.551  0.2094E+03  0.3420E+03
     -4.473  0.2026E+03  0.3578E+03
     -4.395  0.1940E+03  0.3729E+03
     -4.318  0.1879E+03  0.3875E+03
     -4.240  0.1704E+03  0.4007E+03
     -4.162  0.1625E+03  0.4134E+03
     -4.084  0.1741E+03  0.4269E+03
     -4.007  0.1756E+03  0.4406E+03
     -3.929  0.1629E+03  0.4532E+03
     -3.851  0.1533E+03  0.4651E+03
     -3.773  0.1491E+03  0.4767E+03
     -3.695  0.1414E+03  0.4877E+03
     -3.618  0.1406E+03  0.4987E+03
     -3.540  0.1409E+03  0.5096E+03
     -3.462  0.1474E+03  0.5211E+03
     -3.384  0.1498E+03  0.5327E+03
     -3.307  0.1446E+03  0.5440E+03
     -3.229  0.1419E+03  0.5550E+03
     -3.151  0.1444E+03  0.5662E+03
     -3.073  0.1466E+03  0.5776E+03
     -2.996  0.1484E+03  0.5892E+03
     -2.918  0.1516E+03  0.6010E+03
     -2.840  0.1534E+03  0.6129E+03
     -2.762  0.1501E+03  0.6246E+03
     -2.685  0.1456E+03  0.6359E+03
     -2.607  0.1416E+03  0.6469E+03
     -2.529  0.1464E+03  0.6583E+03
     -2.451  0.1509E+03  0.6700E+03
     -2.373  0.1498E+03  0.6817E+03
     -2.296  0.1497E+03  0.6933E+03
     -2.218  0.1539E+03  0.7053E+03
     -2.140  0.1507E+03  0.7170E+03
     -2.062  0.1451E+03  0.7283E+03
     -1.985  0.1380E+03  0.7390E+03
     -1.907  0.1320E+03  0.7493E+03
     -1.829  0.1308E+03  0.7595E+03
     -1.751  0.1315E+03  0.7697E+03
     -1.674  0.1297E+03  0.7798E+03
     -1.596  0.1342E+03  0.7902E+03
     -1.518  0.1432E+03  0.8013E+03
     -1.440  0.1481E+03  0.8129E+03
     -1.362  0.1530E+03  0.8248E+03
     -1.285  0.1603E+03  0.8372E+03
     -1.207  0.1671E+03  0.8502E+03
     -1.129  0.1697E+03  0.8634E+03
     -1.051  0.1683E+03  0.8765E+03
     -0.974  0.1761E+03  0.8902E+03
     -0.896  0.1745E+03  0.9038E+03
     -0.818  0.1603E+03  0.9162E+03
     -0.740  0.1516E+03  0.9280E+03
     -0.663  0.1506E+03  0.9397E+03
     -0.585  0.1480E+03  0.9512E+03
     -0.507  0.1510E+03  0.9630E+03
     -0.429  0.1434E+03  0.9741E+03
     -0.352  0.1276E+03  0.9841E+03
     -0.274  0.1132E+03  0.9929E+03
     -0.196  0.1010E+03  0.1001E+04
     -0.118  0.8966E+02  0.1008E+04
     -0.040  0.7010E+02  0.1013E+04
      0.037  0.5025E+02  0.1017E+04
      0.115  0.3043E+02  0.1019E+04
      0.193  0.2409E+02  0.1021E+04
      0.271  0.2739E+02  0.1023E+04
      0.348  0.3152E+02  0.1026E+04
      0.426  0.4396E+02  0.1029E+04
      0.504  0.4315E+02  0.1033E+04
      0.582  0.2217E+02  0.1034E+04
      0.659  0.1156E+02  0.1035E+04
      0.737  0.3217E+02  0.1038E+04
      0.815  0.5246E+02  0.1042E+04
      0.893  0.5526E+02  0.1046E+04
      0.970  0.3930E+02  0.1049E+04
      1.048  0.1910E+02  0.1051E+04
      1.126  0.1587E+02  0.1052E+04
      1.204  0.1354E+02  0.1053E+04
      1.282  0.1313E+02  0.1054E+04
      1.359  0.2062E+02  0.1056E+04
      1.437  0.3488E+02  0.1058E+04
      1.515  0.4092E+02  0.1061E+04
      1.593  0.4205E+02  0.1065E+04
      1.670  0.4017E+02  0.1068E+04
      1.748  0.4044E+02  0.1071E+04
      1.826  0.3687E+02  0.1074E+04
      1.904  0.2641E+02  0.1076E+04
      1.981  0.1939E+02  0.1077E+04
      2.059  0.1578E+02  0.1079E+04
      2.137  0.1664E+02  0.1080E+04
      2.215  0.2430E+02  0.1082E+04
      2.292  0.3634E+02  0.1085E+04
      2.370  0.4203E+02  0.1088E+04
      2.448  0.3499E+02  0.1091E+04
      2.526  0.3039E+02  0.1093E+04
      2.604  0.2100E+02  0.1095E+04
      2.681  0.1679E+02  0.1096E+04
      2.759  0.3240E+02  0.1099E+04
      2.837  0.3102E+02  0.1101E+04
      2.915  0.2722E+02  0.1103E+04
      2.992  0.3245E+02  0.1106E+04
      3.070  0.3957E+02  0.1109E+04
      3.148  0.4197E+02  0.1112E+04
      3.226  0.3566E+02  0.1115E+04
      3.303  0.2026E+02  0.1116E+04
      3.381  0.1621E+02  0.1118E+04
      3.459  0.2741E+02  0.1120E+04
      3.537  0.2674E+02  0.1122E+04
      3.614  0.1953E+02  0.1123E+04
      3.692  0.2071E+02  0.1125E+04
      3.770  0.2783E+02  0.1127E+04
      3.848  0.3183E+02  0.1129E+04
      3.926  0.2332E+02  0.1131E+04
      4.003  0.1643E+02  0.1133E+04
      4.081  0.1555E+02  0.1134E+04
      4.159  0.2379E+02  0.1136E+04
      4.237  0.3636E+02  0.1138E+04
      4.314  0.3798E+02  0.1141E+04
      4.392  0.3535E+02  0.1144E+04
      4.470  0.3509E+02  0.1147E+04
      4.548  0.3700E+02  0.1150E+04
      4.625  0.3032E+02  0.1152E+04
      4.703  0.3079E+02  0.1155E+04
      4.781  0.3970E+02  0.1158E+04
      4.859  0.3952E+02  0.1161E+04
      4.937  0.2692E+02  0.1163E+04
      5.014  0.2375E+02  0.1165E+04
      5.092  0.1793E+02  0.1166E+04
      5.170  0.9903E+01  0.1167E+04
      5.248  0.1443E+02  0.1168E+04
      5.325  0.3318E+02  0.1170E+04
      5.403  0.5461E+02  0.1175E+04
      5.481  0.5191E+02  0.1179E+04
      5.559  0.3687E+02  0.1182E+04
      5.636  0.2661E+02  0.1184E+04
      5.714  0.2885E+02  0.1186E+04
      5.792  0.3962E+02  0.1189E+04
      5.870  0.5031E+02  0.1193E+04
      5.947  0.5708E+02  0.1197E+04
      6.025  0.7072E+02  0.1203E+04
      6.103  0.6420E+02  0.1208E+04
      6.181  0.4779E+02  0.1212E+04
      6.259  0.5469E+02  0.1216E+04
      6.336  0.5806E+02  0.1220E+04
      6.414  0.5396E+02  0.1225E+04
      6.492  0.4711E+02  0.1228E+04
      6.570  0.5046E+02  0.1232E+04
      6.647  0.6210E+02  0.1237E+04
      6.725  0.5078E+02  0.1241E+04
      6.803  0.4390E+02  0.1244E+04
      6.881  0.6713E+02  0.1250E+04
      6.958  0.7459E+02  0.1255E+04
      7.036  0.6008E+02  0.1260E+04
      7.114  0.5190E+02  0.1264E+04
      7.192  0.5906E+02  0.1269E+04
      7.269  0.6236E+02  0.1274E+04
      7.347  0.5613E+02  0.1278E+04
      7.425  0.5420E+02  0.1282E+04
      7.503  0.5640E+02  0.1286E+04
      7.581  0.5146E+02  0.1290E+04
      7.658  0.5041E+02  0.1294E+04
      7.736  0.6212E+02  0.1299E+04
      7.814  0.6745E+02  0.1304E+04
      7.892  0.5096E+02  0.1308E+04
      7.969  0.4283E+02  0.1312E+04
      8.047  0.3845E+02  0.1315E+04
      8.125  0.3974E+02  0.1318E+04
      8.203  0.4781E+02  0.1322E+04
      8.280  0.5867E+02  0.1326E+04
      8.358  0.6282E+02  0.1331E+04
      8.436  0.5512E+02  0.1335E+04
      8.514  0.5425E+02  0.1340E+04
      8.591  0.6000E+02  0.1344E+04
      8.669  0.6109E+02  0.1349E+04
      8.747  0.6234E+02  0.1354E+04
      8.825  0.6743E+02  0.1359E+04
      8.903  0.6573E+02  0.1364E+04
      8.980  0.6940E+02  0.1370E+04
      9.058  0.8040E+02  0.1376E+04
      9.136  0.7290E+02  0.1381E+04
      9.214  0.5780E+02  0.1386E+04
      9.291  0.5496E+02  0.1390E+04
      9.369  0.6578E+02  0.1395E+04
      9.447  0.7252E+02  0.1401E+04
      9.525  0.6277E+02  0.1406E+04
      9.602  0.6545E+02  0.1411E+04
      9.680  0.6996E+02  0.1416E+04
      9.758  0.6412E+02  0.1421E+04
      9.836  0.7112E+02  0.1427E+04
      9.914  0.8480E+02  0.1434E+04
      9.991  0.9637E+02  0.1441E+04
     10.069  0.8955E+02  0.1448E+04
     10.147  0.7268E+02  0.1454E+04
     10.225  0.6042E+02  0.1458E+04
     10.302  0.5944E+02  0.1463E+04
     10.380  0.6742E+02  0.1468E+04
     10.458  0.7118E+02  0.1474E+04
     10.536  0.7897E+02  0.1480E+04
     10.613  0.7667E+02  0.1486E+04
     10.691  0.6959E+02  0.1491E+04
     10.769  0.7913E+02  0.1497E+04
     10.847  0.8778E+02  0.1504E+04
     10.924  0.9069E+02  0.1511E+04
     11.002  0.8753E+02  0.1518E+04
     11.080  0.8441E+02  0.1525E+04
     11.158  0.8537E+02  0.1531E+04
     11.236  0.8448E+02  0.1538E+04
     11.313  0.8577E+02  0.1545E+04
     11.391  0.8352E+02  0.1551E+04
     11.469  0.7618E+02  0.1557E+04
     11.547  0.8233E+02  0.1563E+04
     11.624  0.8843E+02  0.1570E+04
     11.702  0.9182E+02  0.1577E+04
     11.780  0.9684E+02  0.1585E+04
     11.858  0.9394E+02  0.1592E+04
     11.935  0.8509E+02  0.1599E+04
     12.013  0.6916E+02  0.1604E+04
     12.091  0.6625E+02  0.1609E+04
     12.169  0.8426E+02  0.1616E+04
     12.246  0.8286E+02  0.1622E+04
     12.324  0.7865E+02  0.1628E+04
     12.402  0.8481E+02  0.1635E+04
     12.480  0.9175E+02  0.1642E+04
     12.558  0.9524E+02  0.1650E+04
     12.635  0.9720E+02  0.1657E+04
     12.713  0.1003E+03  0.1665E+04
     12.791  0.9872E+02  0.1673E+04
     12.869  0.9420E+02  0.1680E+04
     12.946  0.8550E+02  0.1687E+04
     13.024  0.8211E+02  0.1693E+04
     13.102  0.8943E+02  0.1700E+04
     13.180  0.8357E+02  0.1706E+04
     13.257  0.7210E+02  0.1712E+04
     13.335  0.5406E+02  0.1716E+04
     13.413  0.2806E+02  0.1718E+04
     13.491  0.1516E+02  0.1720E+04
     13.568  0.5409E+01  0.1720E+04
     13.646 -0.8699E-01  0.1720E+04
     13.724 -0.2967E+00  0.1720E+04
     13.802 -0.2922E-01  0.1720E+04
     13.880 -0.7364E-03  0.1720E+04
     13.957 -0.5374E-05  0.1720E+04
     14.035 -0.1166E-07  0.1720E+04
     14.113 -0.7569E-11  0.1720E+04
     14.191 -0.1428E-14  0.1720E+04
     14.268  0.0000E+00  0.1720E+04
     14.346  0.0000E+00  0.1720E+04
     14.424  0.0000E+00  0.1720E+04
     14.502  0.0000E+00  0.1720E+04
     14.579  0.0000E+00  0.1720E+04
     14.57944496     -8.75022807  301     -0.60669730      1.00000000
     -8.750  0.0000E+00  0.0000E+00  0.0000E+00
     -8.672  0.0000E+00  0.0000E+00  0.0000E+00
     -8.595  0.0000E+00  0.0000E+00  0.0000E+00
     -8.517 -0.8910E-32 -0.9624E-33 -0.2081E-33
     -8.439 -0.1704E-26 -0.1840E-27 -0.3978E-28
     -8.361 -0.9615E-22 -0.1039E-22 -0.2245E-23
     -8.284 -0.1597E-17 -0.1725E-18 -0.3729E-19
     -8.206 -0.7491E-14 -0.8092E-15 -0.1749E-15
     -8.128 -0.1048E-10 -0.1132E-11 -0.2448E-12
     -8.050 -0.4189E-08 -0.4526E-09 -0.9787E-10
     -7.973 -0.4640E-06 -0.5014E-07 -0.1087E-07
     -7.895 -0.1321E-04 -0.1431E-05 -0.3153E-06
     -7.817 -0.7402E-04 -0.8198E-05 -0.2107E-05
     -7.739  0.1055E-03  0.8873E-05 -0.2251E-05
     -7.662  0.1330E-02  0.1454E-03  0.3425E-04
     -7.584  0.5589E-02  0.6590E-03  0.2333E-03
     -7.506  0.6008E-02  0.7109E-03  0.2501E-03
     -7.428  0.1313E-02  0.1654E-03  0.7870E-04
     -7.350  0.6831E-02  0.9267E-03  0.6287E-03
     -7.273  0.1058E-01  0.1438E-02  0.1014E-02
     -7.195  0.4707E-02  0.7903E-03  0.8356E-03
     -7.117  0.2215E-02  0.3069E-03  0.4291E-03
     -7.039  0.1325E-01  0.1228E-02  0.1318E-02
     -6.962  0.2741E-01  0.3128E-02  0.4383E-02
     -6.884  0.1227E-01  0.1969E-02  0.3706E-02
     -6.806  0.1264E-01  0.1944E-02  0.3624E-02
     -6.728  0.3392E-01  0.4425E-02  0.7446E-02
     -6.651  0.2529E-01  0.3004E-02  0.3641E-02
     -6.573  0.8055E-02  0.7159E-03 -0.1566E-02
     -6.495  0.1226E-01  0.2245E-02  0.1470E-01
     -6.417  0.3630E-01  0.7523E-02  0.8335E-01
     -6.339  0.5338E-01  0.1168E-01  0.1950E+00
     -6.262  0.7695E-01  0.1515E-01  0.3355E+00
     -6.184  0.7899E-01  0.1571E-01  0.4633E+00
     -6.106  0.7818E-01  0.1375E-01  0.4704E+00
     -6.028  0.8767E-01  0.1495E-01  0.5162E+00
     -5.951  0.9321E-01  0.1811E-01  0.7165E+00
     -5.873  0.1027E+00  0.2155E-01  0.1098E+01
     -5.795  0.1144E+00  0.2376E-01  0.1576E+01
     -5.717  0.1310E+00  0.2659E-01  0.1973E+01
     -5.640  0.1497E+00  0.2878E-01  0.2254E+01
     -5.562  0.1446E+00  0.2710E-01  0.2595E+01
     -5.484  0.1076E+00  0.2837E-01  0.2742E+01
     -5.406  0.7323E-01  0.3263E-01  0.2942E+01
     -5.329  0.6229E-01  0.3722E-01  0.3360E+01
     -5.251  0.5986E-01  0.3651E-01  0.3752E+01
     -5.173  0.7266E-01  0.3186E-01  0.3570E+01
     -5.095  0.1007E+00  0.3131E-01  0.3626E+01
     -5.017  0.1171E+00  0.2911E-01  0.3787E+01
     -4.940  0.1042E+00  0.3108E-01  0.3551E+01
     -4.862  0.9133E-01  0.3327E-01  0.3379E+01
     -4.784  0.7492E-01  0.2706E-01  0.2781E+01
     -4.706  0.5413E-01  0.2481E-01  0.2851E+01
     -4.629  0.5223E-01  0.2572E-01  0.4144E+01
     -4.551  0.6364E-01  0.2544E-01  0.4832E+01
     -4.473  0.7683E-01  0.2881E-01  0.4605E+01
     -4.395  0.8028E-01  0.3095E-01  0.4726E+01
     -4.318  0.5859E-01  0.2593E-01  0.4664E+01
     -4.240  0.4245E-01  0.2189E-01  0.4084E+01
     -4.162  0.4726E-01  0.2235E-01  0.3292E+01
     -4.084  0.6072E-01  0.2356E-01  0.2958E+01
     -4.007  0.5917E-01  0.2122E-01  0.2863E+01
     -3.929  0.4703E-01  0.1603E-01  0.2284E+01
     -3.851  0.4668E-01  0.1611E-01  0.1878E+01
     -3.773  0.6174E-01  0.1790E-01  0.1757E+01
     -3.695  0.7439E-01  0.1913E-01  0.1427E+01
     -3.618  0.7598E-01  0.2128E-01  0.1399E+01
     -3.540  0.6092E-01  0.2469E-01  0.1469E+01
     -3.462  0.5801E-01  0.2894E-01  0.1606E+01
     -3.384  0.5891E-01  0.3072E-01  0.1484E+01
     -3.307  0.5365E-01  0.2848E-01  0.9987E+00
     -3.229  0.5068E-01  0.2698E-01  0.7491E+00
     -3.151  0.6462E-01  0.3178E-01  0.7381E+00
     -3.073  0.7859E-01  0.3678E-01  0.7399E+00
     -2.996  0.6435E-01  0.4280E-01  0.6460E+00
     -2.918  0.5049E-01  0.4764E-01  0.6029E+00
     -2.840  0.5967E-01  0.4859E-01  0.6091E+00
     -2.762  0.6549E-01  0.4595E-01  0.5647E+00
     -2.685  0.6099E-01  0.4723E-01  0.5336E+00
     -2.607  0.4679E-01  0.4903E-01  0.4697E+00
     -2.529  0.3816E-01  0.4880E-01  0.4840E+00
     -2.451  0.4556E-01  0.5378E-01  0.5079E+00
     -2.373  0.5899E-01  0.6003E-01  0.4917E+00
     -2.296  0.5454E-01  0.6349E-01  0.5427E+00
     -2.218  0.4265E-01  0.7581E-01  0.5320E+00
     -2.140  0.3324E-01  0.7249E-01  0.4116E+00
     -2.062  0.2894E-01  0.5567E-01  0.3670E+00
     -1.985  0.2822E-01  0.5181E-01  0.3675E+00
     -1.907  0.3245E-01  0.5913E-01  0.3930E+00
     -1.829  0.3941E-01  0.7074E-01  0.4404E+00
     -1.751  0.4493E-01  0.7612E-01  0.4554E+00
     -1.674  0.4407E-01  0.7666E-01  0.4449E+00
     -1.596  0.4333E-01  0.7696E-01  0.4484E+00
     -1.518  0.3900E-01  0.6755E-01  0.4448E+00
     -1.440  0.3421E-01  0.5750E-01  0.4057E+00
     -1.362  0.3703E-01  0.5443E-01  0.3647E+00
     -1.285  0.3938E-01  0.5596E-01  0.3384E+00
     -1.207  0.4177E-01  0.5788E-01  0.3623E+00
     -1.129  0.4029E-01  0.5561E-01  0.3540E+00
     -1.051  0.3326E-01  0.5267E-01  0.3038E+00
     -0.974  0.2576E-01  0.4832E-01  0.3141E+00
     -0.896  0.2286E-01  0.4019E-01  0.3146E+00
     -0.818  0.2509E-01  0.3274E-01  0.2851E+00
     -0.740  0.2304E-01  0.3068E-01  0.2521E+00
     -0.663  0.2008E-01  0.3168E-01  0.2553E+00
     -0.585  0.1995E-01  0.3399E-01  0.2782E+00
     -0.507  0.2073E-01  0.3542E-01  0.2627E+00
     -0.429  0.2443E-01  0.3101E-01  0.2147E+00
     -0.352  0.2767E-01  0.2791E-01  0.1784E+00
     -0.274  0.2307E-01  0.2907E-01  0.1342E+00
     -0.196  0.1889E-01  0.3150E-01  0.8668E-01
     -0.118  0.2109E-01  0.3129E-01  0.6438E-01
     -0.040  0.2624E-01  0.3039E-01  0.5228E-01
      0.037  0.2837E-01  0.3392E-01  0.4976E-01
      0.115  0.2186E-01  0.2677E-01  0.3335E-01
      0.193  0.2364E-01  0.2378E-01  0.2545E-01
      0.271  0.2746E-01  0.3340E-01  0.3989E-01
      0.348  0.3121E-01  0.4909E-01  0.5133E-01
      0.426  0.4297E-01  0.5067E-01  0.6266E-01
      0.504  0.3893E-01  0.3586E-01  0.6267E-01
      0.582  0.1560E-01  0.2116E-01  0.3313E-01
      0.659  0.1095E-01  0.2507E-01  0.2154E-01
      0.737  0.4955E-01  0.6821E-01  0.6314E-01
      0.815  0.7915E-01  0.9697E-01  0.9407E-01
      0.893  0.8001E-01  0.1095E+00  0.9255E-01
      0.970  0.5124E-01  0.8430E-01  0.6153E-01
      1.048  0.1600E-01  0.3513E-01  0.2720E-01
      1.126  0.1240E-01  0.1888E-01  0.2010E-01
      1.204  0.1287E-01  0.1164E-01  0.2198E-01
      1.282  0.1865E-01  0.1090E-01  0.3396E-01
      1.359  0.2612E-01  0.3411E-01  0.4880E-01
      1.437  0.2801E-01  0.6109E-01  0.6330E-01
      1.515  0.2663E-01  0.6164E-01  0.6397E-01
      1.593  0.2801E-01  0.7331E-01  0.5372E-01
      1.670  0.3335E-01  0.9269E-01  0.4941E-01
      1.748  0.4881E-01  0.1020E+00  0.6553E-01
      1.826  0.7611E-01  0.9084E-01  0.8027E-01
      1.904  0.5339E-01  0.8104E-01  0.7005E-01
      1.981  0.2146E-01  0.7764E-01  0.4431E-01
      2.059  0.1612E-01  0.5079E-01  0.2676E-01
      2.137  0.1339E-01  0.3440E-01  0.2254E-01
      2.215  0.1793E-01  0.4812E-01  0.2775E-01
      2.292  0.2410E-01  0.9521E-01  0.4692E-01
      2.370  0.2597E-01  0.1295E+00  0.5455E-01
      2.448  0.1560E-01  0.9792E-01  0.4174E-01
      2.526  0.1272E-01  0.5996E-01  0.2943E-01
      2.604  0.1169E-01  0.3480E-01  0.1984E-01
      2.681  0.1273E-01  0.4666E-01  0.3001E-01
      2.759  0.2801E-01  0.1005E+00  0.6023E-01
      2.837  0.2739E-01  0.8034E-01  0.5598E-01
      2.915  0.2149E-01  0.6176E-01  0.4790E-01
      2.992  0.1813E-01  0.1006E+00  0.5171E-01
      3.070  0.1917E-01  0.1171E+00  0.5641E-01
      3.148  0.3499E-01  0.1224E+00  0.6011E-01
      3.226  0.3690E-01  0.1086E+00  0.5393E-01
      3.303  0.1605E-01  0.6361E-01  0.3432E-01
      3.381  0.1466E-01  0.5936E-01  0.3630E-01
      3.459  0.2575E-01  0.8502E-01  0.6014E-01
      3.537  0.1912E-01  0.7190E-01  0.4580E-01
      3.614  0.8007E-02  0.3897E-01  0.2006E-01
      3.692  0.7806E-02  0.4218E-01  0.2274E-01
      3.770  0.1313E-01  0.6738E-01  0.3915E-01
      3.848  0.2028E-01  0.7351E-01  0.4359E-01
      3.926  0.1416E-01  0.4425E-01  0.3196E-01
      4.003  0.6304E-02  0.2727E-01  0.2554E-01
      4.081  0.7993E-02  0.2777E-01  0.1874E-01
      4.159  0.1795E-01  0.4584E-01  0.2977E-01
      4.237  0.2564E-01  0.6719E-01  0.5592E-01
      4.314  0.2019E-01  0.7505E-01  0.5539E-01
      4.392  0.1987E-01  0.8614E-01  0.4752E-01
      4.470  0.1646E-01  0.7412E-01  0.3401E-01
      4.548  0.1404E-01  0.6376E-01  0.3230E-01
      4.625  0.1422E-01  0.5004E-01  0.3236E-01
      4.703  0.1460E-01  0.5619E-01  0.3970E-01
      4.781  0.1630E-01  0.4821E-01  0.3644E-01
      4.859  0.1868E-01  0.2626E-01  0.2412E-01
      4.937  0.2314E-01  0.4192E-01  0.3279E-01
      5.014  0.2392E-01  0.4313E-01  0.3081E-01
      5.092  0.1216E-01  0.1240E-01  0.9726E-02
      5.170  0.5124E-02  0.6601E-02  0.5373E-02
      5.248  0.3896E-02  0.2283E-01  0.1412E-01
      5.325  0.1578E-01  0.4822E-01  0.3090E-01
      5.403  0.3268E-01  0.6418E-01  0.4452E-01
      5.481  0.3094E-01  0.4415E-01  0.3777E-01
      5.559  0.2114E-01  0.4243E-01  0.3056E-01
      5.636  0.1919E-01  0.3836E-01  0.2285E-01
      5.714  0.4223E-01  0.1933E-01  0.2008E-01
      5.792  0.1225E+00  0.3025E-01  0.4546E-01
      5.870  0.2406E+00  0.5223E-01  0.8584E-01
      5.947  0.2190E+00  0.6274E-01  0.1007E+00
      6.025  0.1606E+00  0.6693E-01  0.9107E-01
      6.103  0.1494E+00  0.6787E-01  0.7602E-01
      6.181  0.1350E+00  0.6816E-01  0.6376E-01
      6.259  0.1148E+00  0.8221E-01  0.6378E-01
      6.336  0.9817E-01  0.9582E-01  0.6667E-01
      6.414  0.8926E-01  0.8880E-01  0.6589E-01
      6.492  0.9824E-01  0.8248E-01  0.6436E-01
      6.570  0.9604E-01  0.7610E-01  0.6352E-01
      6.647  0.8591E-01  0.7725E-01  0.6545E-01
      6.725  0.6851E-01  0.6066E-01  0.4399E-01
      6.803  0.5112E-01  0.6126E-01  0.3459E-01
      6.881  0.7041E-01  0.1060E+00  0.5684E-01
      6.958  0.8719E-01  0.1328E+00  0.6316E-01
      7.036  0.7175E-01  0.1148E+00  0.5202E-01
      7.114  0.4990E-01  0.9626E-01  0.4466E-01
      7.192  0.3350E-01  0.8957E-01  0.3930E-01
      7.269  0.2736E-01  0.8947E-01  0.3677E-01
      7.347  0.3840E-01  0.1058E+00  0.4799E-01
      7.425  0.5054E-01  0.1157E+00  0.5766E-01
      7.503  0.4811E-01  0.1148E+00  0.5152E-01
      7.581  0.3747E-01  0.9033E-01  0.3782E-01
      7.658  0.3348E-01  0.8101E-01  0.3219E-01
      7.736  0.3828E-01  0.8461E-01  0.4386E-01
      7.814  0.4071E-01  0.7885E-01  0.5121E-01
      7.892  0.4198E-01  0.6779E-01  0.3847E-01
      7.969  0.5210E-01  0.8380E-01  0.3756E-01
      8.047  0.4620E-01  0.8405E-01  0.3687E-01
      8.125  0.5510E-01  0.7165E-01  0.3584E-01
      8.203  0.8305E-01  0.6671E-01  0.4842E-01
      8.280  0.7744E-01  0.6784E-01  0.5781E-01
      8.358  0.7512E-01  0.6923E-01  0.5807E-01
      8.436  0.6379E-01  0.6864E-01  0.4858E-01
      8.514  0.4526E-01  0.7318E-01  0.4980E-01
      8.591  0.6220E-01  0.8823E-01  0.6339E-01
      8.669  0.7636E-01  0.8646E-01  0.6416E-01
      8.747  0.7531E-01  0.7512E-01  0.6342E-01
      8.825  0.7810E-01  0.7461E-01  0.7349E-01
      8.903  0.6401E-01  0.7560E-01  0.6060E-01
      8.980  0.5578E-01  0.8199E-01  0.5582E-01
      9.058  0.7730E-01  0.8125E-01  0.6625E-01
      9.136  0.8857E-01  0.7622E-01  0.6499E-01
      9.214  0.6777E-01  0.7773E-01  0.6078E-01
      9.291  0.5890E-01  0.7209E-01  0.6009E-01
      9.369  0.7332E-01  0.7800E-01  0.6976E-01
      9.447  0.7910E-01  0.8249E-01  0.7399E-01
      9.525  0.6823E-01  0.6356E-01  0.5762E-01
      9.602  0.5338E-01  0.6780E-01  0.6493E-01
      9.680  0.5058E-01  0.8120E-01  0.7925E-01
      9.758  0.6171E-01  0.7652E-01  0.7396E-01
      9.836  0.8504E-01  0.8643E-01  0.7982E-01
      9.914  0.9912E-01  0.1045E+00  0.9364E-01
      9.991  0.9153E-01  0.1159E+00  0.9354E-01
     10.069  0.7346E-01  0.1098E+00  0.8197E-01
     10.147  0.4905E-01  0.9881E-01  0.6734E-01
     10.225  0.3879E-01  0.8502E-01  0.6159E-01
     10.302  0.5243E-01  0.8739E-01  0.5583E-01
     10.380  0.5222E-01  0.9611E-01  0.5882E-01
     10.458  0.4776E-01  0.9224E-01  0.6747E-01
     10.536  0.6662E-01  0.1010E+00  0.7500E-01
     10.613  0.7185E-01  0.1103E+00  0.6956E-01
     10.691  0.5964E-01  0.1100E+00  0.6163E-01
     10.769  0.6489E-01  0.1258E+00  0.7768E-01
     10.847  0.7377E-01  0.1436E+00  0.9187E-01
     10.924  0.7587E-01  0.1388E+00  0.9456E-01
     11.002  0.4936E-01  0.1229E+00  0.8497E-01
     11.080  0.3024E-01  0.1205E+00  0.7687E-01
     11.158  0.3462E-01  0.1208E+00  0.7524E-01
     11.236  0.4596E-01  0.1195E+00  0.7631E-01
     11.313  0.5179E-01  0.1191E+00  0.7870E-01
     11.391  0.4977E-01  0.1249E+00  0.7956E-01
     11.469  0.4403E-01  0.1165E+00  0.6891E-01
     11.547  0.4303E-01  0.1078E+00  0.7168E-01
     11.624  0.5282E-01  0.1206E+00  0.8715E-01
     11.702  0.5720E-01  0.1558E+00  0.9259E-01
     11.780  0.5814E-01  0.1495E+00  0.8266E-01
     11.858  0.5769E-01  0.1155E+00  0.7139E-01
     11.935  0.4494E-01  0.1059E+00  0.6538E-01
     12.013  0.3497E-01  0.1060E+00  0.6001E-01
     12.091  0.3099E-01  0.1118E+00  0.6465E-01
     12.169  0.3184E-01  0.1408E+00  0.7582E-01
     12.246  0.2612E-01  0.1559E+00  0.7808E-01
     12.324  0.2545E-01  0.1406E+00  0.8270E-01
     12.402  0.3209E-01  0.1221E+00  0.9212E-01
     12.480  0.3096E-01  0.1265E+00  0.9765E-01
     12.558  0.2848E-01  0.1383E+00  0.9631E-01
     12.635  0.3099E-01  0.1468E+00  0.8649E-01
     12.713  0.3669E-01  0.1544E+00  0.8183E-01
     12.791  0.4830E-01  0.1719E+00  0.8648E-01
     12.869  0.4593E-01  0.1677E+00  0.8496E-01
     12.946  0.4333E-01  0.1374E+00  0.7675E-01
     13.024  0.4278E-01  0.1168E+00  0.8188E-01
     13.102  0.3758E-01  0.1153E+00  0.8991E-01
     13.180  0.3321E-01  0.1178E+00  0.8318E-01
     13.257  0.2497E-01  0.1014E+00  0.7223E-01
     13.335  0.1993E-01  0.7119E-01  0.5687E-01
     13.413  0.1379E-01  0.4463E-01  0.3565E-01
     13.491  0.6252E-02  0.2803E-01  0.2040E-01
     13.568  0.1523E-02  0.1090E-01  0.5457E-02
     13.646 -0.4999E-04  0.3039E-03 -0.4371E-03
     13.724 -0.9727E-04 -0.5786E-03 -0.3081E-03
     13.802 -0.1072E-04 -0.6776E-04 -0.2612E-04
     13.880 -0.2984E-06 -0.1907E-05 -0.6129E-06
     13.957 -0.2354E-08 -0.1502E-07 -0.4313E-08
     14.035 -0.5421E-11 -0.3434E-10 -0.9205E-11
     14.113 -0.3677E-14 -0.2306E-13 -0.5937E-14
     14.191 -0.7803E-18 -0.4607E-17 -0.1139E-17
     14.268  0.0000E+00  0.0000E+00  0.0000E+00
     14.346  0.0000E+00  0.0000E+00  0.0000E+00
     14.424  0.0000E+00  0.0000E+00  0.0000E+00
     14.502  0.0000E+00  0.0000E+00  0.0000E+00
     14.579  0.0000E+00  0.0000E+00  0.0000E+00
     14.57944496     -8.75022807  301     -0.60669730      1.00000000
     -8.750  0.0000E+00  0.0000E+00  0.0000E+00
     -8.672  0.0000E+00  0.0000E+00  0.0000E+00
     -8.595  0.0000E+00  0.0000E+00  0.0000E+00
     -8.517 -0.7788E-32 -0.8408E-33 -0.7471E-34
     -8.439 -0.1489E-26 -0.1608E-27 -0.1429E-28
     -8.361 -0.8405E-22 -0.9074E-23 -0.8062E-24
     -8.284 -0.1396E-17 -0.1507E-18 -0.1339E-19
     -8.206 -0.6549E-14 -0.7070E-15 -0.6282E-16
     -8.128 -0.9162E-11 -0.9892E-12 -0.8790E-13
     -8.050 -0.3662E-08 -0.3954E-09 -0.3516E-10
     -7.973 -0.4056E-06 -0.4381E-07 -0.3917E-08
     -7.895 -0.1154E-04 -0.1250E-05 -0.1162E-06
     -7.817 -0.6425E-04 -0.7131E-05 -0.9225E-06
     -7.739  0.9781E-04  0.8131E-05 -0.2870E-05
     -7.662  0.1159E-02  0.1268E-03  0.1371E-04
     -7.584  0.4766E-02  0.5677E-03  0.1287E-03
     -7.506  0.5144E-02  0.6146E-03  0.1375E-03
     -7.428  0.1097E-02  0.1408E-03  0.4911E-04
     -7.350  0.4871E-02  0.7154E-03  0.4366E-03
     -7.273  0.7344E-02  0.1090E-02  0.7065E-03
     -7.195  0.4086E-02  0.6910E-03  0.5953E-03
     -7.117  0.2999E-02  0.3703E-03  0.2887E-03
     -7.039  0.1047E-01  0.9651E-03  0.7160E-03
     -6.962  0.2112E-01  0.2457E-02  0.2707E-02
     -6.884  0.1197E-01  0.1874E-02  0.2700E-02
     -6.806  0.1225E-01  0.1898E-02  0.2562E-02
     -6.728  0.2534E-01  0.3542E-02  0.4525E-02
     -6.651  0.1832E-01  0.2322E-02  0.2047E-02
     -6.573  0.6305E-02  0.6096E-03 -0.6902E-03
     -6.495  0.9871E-02  0.1986E-02  0.1040E-01
     -6.417  0.2559E-01  0.5751E-02  0.4720E-01
     -6.339  0.3157E-01  0.7626E-02  0.1182E+00
     -6.262  0.3966E-01  0.8017E-02  0.1957E+00
     -6.184  0.5009E-01  0.7540E-02  0.2008E+00
     -6.106  0.5744E-01  0.8480E-02  0.2112E+00
     -6.028  0.6718E-01  0.1168E-01  0.2913E+00
     -5.951  0.7067E-01  0.1497E-01  0.3884E+00
     -5.873  0.7500E-01  0.1780E-01  0.5501E+00
     -5.795  0.8515E-01  0.2233E-01  0.8051E+00
     -5.717  0.1104E+00  0.2817E-01  0.1128E+01
     -5.640  0.1449E+00  0.2866E-01  0.1564E+01
     -5.562  0.1631E+00  0.2669E-01  0.2039E+01
     -5.484  0.1323E+00  0.2850E-01  0.2397E+01
     -5.406  0.9794E-01  0.3169E-01  0.3035E+01
     -5.329  0.9791E-01  0.3829E-01  0.3862E+01
     -5.251  0.1144E+00  0.4126E-01  0.4152E+01
     -5.173  0.1102E+00  0.3408E-01  0.3707E+01
     -5.095  0.1053E+00  0.2908E-01  0.3792E+01
     -5.017  0.1213E+00  0.2662E-01  0.4157E+01
     -4.940  0.1172E+00  0.2450E-01  0.4486E+01
     -4.862  0.9523E-01  0.2291E-01  0.4153E+01
     -4.784  0.7098E-01  0.1913E-01  0.3526E+01
     -4.706  0.5184E-01  0.1621E-01  0.3556E+01
     -4.629  0.4758E-01  0.1598E-01  0.4166E+01
     -4.551  0.5484E-01  0.1490E-01  0.4819E+01
     -4.473  0.6863E-01  0.1550E-01  0.4671E+01
     -4.395  0.7377E-01  0.1575E-01  0.3726E+01
     -4.318  0.6422E-01  0.1406E-01  0.3234E+01
     -4.240  0.6542E-01  0.1373E-01  0.3481E+01
     -4.162  0.8485E-01  0.1417E-01  0.3623E+01
     -4.084  0.9108E-01  0.1333E-01  0.3559E+01
     -4.007  0.8312E-01  0.1114E-01  0.3252E+01
     -3.929  0.6773E-01  0.1198E-01  0.2553E+01
     -3.851  0.7270E-01  0.1800E-01  0.2240E+01
     -3.773  0.7596E-01  0.2415E-01  0.2046E+01
     -3.695  0.5811E-01  0.3124E-01  0.1610E+01
     -3.618  0.6137E-01  0.3968E-01  0.1360E+01
     -3.540  0.7459E-01  0.4266E-01  0.1139E+01
     -3.462  0.8380E-01  0.4167E-01  0.1005E+01
     -3.384  0.7720E-01  0.4356E-01  0.9569E+00
     -3.307  0.5080E-01  0.4744E-01  0.9800E+00
     -3.229  0.3740E-01  0.4519E-01  0.9373E+00
     -3.151  0.4472E-01  0.4576E-01  0.8504E+00
     -3.073  0.5263E-01  0.5404E-01  0.7580E+00
     -2.996  0.5041E-01  0.5486E-01  0.6425E+00
     -2.918  0.5122E-01  0.5157E-01  0.5930E+00
     -2.840  0.5609E-01  0.5284E-01  0.6801E+00
     -2.762  0.4813E-01  0.6628E-01  0.8070E+00
     -2.685  0.3963E-01  0.7357E-01  0.7458E+00
     -2.607  0.3845E-01  0.5993E-01  0.5461E+00
     -2.529  0.3645E-01  0.5414E-01  0.4795E+00
     -2.451  0.3879E-01  0.5480E-01  0.4525E+00
     -2.373  0.4236E-01  0.5636E-01  0.4425E+00
     -2.296  0.5194E-01  0.6373E-01  0.5093E+00
     -2.218  0.7076E-01  0.7483E-01  0.5647E+00
     -2.140  0.6902E-01  0.7603E-01  0.5398E+00
     -2.062  0.6079E-01  0.7494E-01  0.5722E+00
     -1.985  0.5064E-01  0.7354E-01  0.5615E+00
     -1.907  0.3576E-01  0.6780E-01  0.4794E+00
     -1.829  0.3644E-01  0.6979E-01  0.4891E+00