  64  64   1   0
  0.4804938E+02  0.1146371E-08  0.1146371E-08  0.2702006E-08  0.1000000E-15
  1.000000000000000E-004
  CAR 
 unknown system                          
      8.02816549    -12.30789487  301     -1.21305778      1.00000000
    -12.308  0.0000E+00  0.0000E+00
    -12.240  0.0000E+00  0.0000E+00
    -12.172  0.0000E+00  0.0000E+00
    -12.105  0.0000E+00  0.0000E+00
    -12.037  0.0000E+00  0.0000E+00
    -11.969 -0.2385E-31 -0.1617E-32
    -11.901 -0.5659E-29 -0.3852E-30
    -11.833 -0.1069E-26 -0.7284E-28
    -11.766 -0.1600E-24 -0.1092E-25
    -11.698 -0.1900E-22 -0.1299E-23
    -11.630 -0.1788E-20 -0.1225E-21
    -11.562 -0.1333E-18 -0.9157E-20
    -11.494 -0.7870E-17 -0.5427E-18
    -11.427 -0.3562E-15 -0.2469E-16
    -11.359 -0.1313E-13 -0.9150E-15
    -11.291 -0.3826E-12 -0.2685E-13
    -11.223 -0.8805E-11 -0.6237E-12
    -11.156 -0.1599E-09 -0.1147E-10
    -11.088 -0.2292E-08 -0.1669E-09
    -11.020 -0.2591E-07 -0.1923E-08
    -10.952 -0.2307E-06 -0.1756E-07
    -10.884 -0.1618E-05 -0.1273E-06
    -10.817 -0.8932E-05 -0.7328E-06
    -10.749 -0.3870E-04 -0.3356E-05
    -10.681 -0.1305E-03 -0.1220E-04
    -10.613 -0.3341E-03 -0.3485E-04
    -10.545 -0.6019E-03 -0.7565E-04
    -10.478 -0.5376E-03 -0.1121E-03
    -10.410  0.7924E-03 -0.5838E-04
    -10.342  0.4373E-02  0.2381E-03
    -10.274  0.9834E-02  0.9047E-03
    -10.207  0.1470E-01  0.1901E-02
    -10.139  0.1657E-01  0.3025E-02
    -10.071  0.1650E-01  0.4143E-02
    -10.003  0.1813E-01  0.5372E-02
     -9.935  0.2243E-01  0.6892E-02
     -9.868  0.2538E-01  0.8613E-02
     -9.800  0.2259E-01  0.1014E-01
     -9.732  0.1526E-01  0.1118E-01
     -9.664  0.1026E-01  0.1187E-01
     -9.596  0.1347E-01  0.1279E-01
     -9.529  0.2313E-01  0.1436E-01
     -9.461  0.3108E-01  0.1646E-01
     -9.393  0.3161E-01  0.1860E-01
     -9.325  0.2645E-01  0.2040E-01
     -9.257  0.2082E-01  0.2181E-01
     -9.190  0.1832E-01  0.2305E-01
     -9.122  0.2111E-01  0.2448E-01
     -9.054  0.3054E-01  0.2655E-01
     -8.986  0.4499E-01  0.2960E-01
     -8.919  0.5855E-01  0.3357E-01
     -8.851  0.6445E-01  0.3794E-01
     -8.783  0.6001E-01  0.4201E-01
     -8.715  0.4744E-01  0.4522E-01
     -8.647  0.3209E-01  0.4740E-01
     -8.580  0.2340E-01  0.4899E-01
     -8.512  0.3317E-01  0.5123E-01
     -8.444  0.6372E-01  0.5555E-01
     -8.376  0.9847E-01  0.6223E-01
     -8.308  0.1150E+00  0.7002E-01
     -8.241  0.1104E+00  0.7751E-01
     -8.173  0.1058E+00  0.8468E-01
     -8.105  0.1227E+00  0.9299E-01
     -8.037  0.1616E+00  0.1039E+00
     -7.970  0.2069E+00  0.1180E+00
     -7.902  0.2478E+00  0.1348E+00
     -7.834  0.2820E+00  0.1539E+00
     -7.766  0.3040E+00  0.1745E+00
     -7.698  0.3042E+00  0.1951E+00
     -7.631  0.2935E+00  0.2150E+00
     -7.563  0.3110E+00  0.2361E+00
     -7.495  0.3876E+00  0.2624E+00
     -7.427  0.5009E+00  0.2963E+00
     -7.359  0.5837E+00  0.3359E+00
     -7.292  0.5908E+00  0.3759E+00
     -7.224  0.5457E+00  0.4129E+00
     -7.156  0.5077E+00  0.4473E+00
     -7.088  0.5038E+00  0.4815E+00
     -7.021  0.5105E+00  0.5161E+00
     -6.953  0.4972E+00  0.5498E+00
     -6.885  0.4633E+00  0.5812E+00
     -6.817  0.4257E+00  0.6101E+00
     -6.749  0.3932E+00  0.6367E+00
     -6.682  0.3722E+00  0.6619E+00
     -6.614  0.3810E+00  0.6878E+00
     -6.546  0.4340E+00  0.7172E+00
     -6.478  0.5132E+00  0.7520E+00
     -6.410  0.5762E+00  0.7910E+00
     -6.343  0.5930E+00  0.8312E+00
     -6.275  0.5700E+00  0.8699E+00
     -6.207  0.5476E+00  0.9070E+00
     -6.139  0.5717E+00  0.9458E+00
     -6.072  0.6486E+00  0.9897E+00
     -6.004  0.7306E+00  0.1039E+01
     -5.936  0.7667E+00  0.1091E+01
     -5.868  0.7543E+00  0.1142E+01
     -5.800  0.7236E+00  0.1191E+01
     -5.733  0.6955E+00  0.1239E+01
     -5.665  0.6800E+00  0.1285E+01
     -5.597  0.6909E+00  0.1331E+01
     -5.529  0.7380E+00  0.1381E+01
     -5.461  0.8121E+00  0.1437E+01
     -5.394  0.8848E+00  0.1497E+01
     -5.326  0.9220E+00  0.1559E+01
     -5.258  0.9068E+00  0.1620E+01
     -5.190  0.8534E+00  0.1678E+01
     -5.122  0.7923E+00  0.1732E+01
     -5.055  0.7415E+00  0.1782E+01
     -4.987  0.7000E+00  0.1830E+01
     -4.919  0.6594E+00  0.1874E+01
     -4.851  0.6157E+00  0.1916E+01
     -4.784  0.5776E+00  0.1955E+01
     -4.716  0.5651E+00  0.1994E+01
     -4.648  0.5945E+00  0.2034E+01
     -4.580  0.6656E+00  0.2079E+01
     -4.512  0.7587E+00  0.2131E+01
     -4.445  0.8336E+00  0.2187E+01
     -4.377  0.8458E+00  0.2244E+01
     -4.309  0.7822E+00  0.2297E+01
     -4.241  0.6821E+00  0.2344E+01
     -4.173  0.6155E+00  0.2385E+01
     -4.106  0.6315E+00  0.2428E+01
     -4.038  0.7215E+00  0.2477E+01
     -3.970  0.8291E+00  0.2533E+01
     -3.902  0.8915E+00  0.2594E+01
     -3.835  0.8767E+00  0.2653E+01
     -3.767  0.8029E+00  0.2708E+01
     -3.699  0.7379E+00  0.2758E+01
     -3.631  0.7565E+00  0.2809E+01
     -3.563  0.8712E+00  0.2868E+01
     -3.496  0.1008E+01  0.2936E+01
     -3.428  0.1074E+01  0.3009E+01
     -3.360  0.1036E+01  0.3079E+01
     -3.292  0.9255E+00  0.3142E+01
     -3.224  0.7879E+00  0.3195E+01
     -3.157  0.6553E+00  0.3240E+01
     -3.089  0.5431E+00  0.3277E+01
     -3.021  0.4499E+00  0.3307E+01
     -2.953  0.3650E+00  0.3332E+01
     -2.886  0.2845E+00  0.3351E+01
     -2.818  0.2160E+00  0.3366E+01
     -2.750  0.1643E+00  0.3377E+01
     -2.682  0.1253E+00  0.3385E+01
     -2.614  0.9622E-01  0.3392E+01
     -2.547  0.8151E-01  0.3398E+01
     -2.479  0.8367E-01  0.3403E+01
     -2.411  0.9595E-01  0.3410E+01
     -2.343  0.1087E+00  0.3417E+01
     -2.275  0.1158E+00  0.3425E+01
     -2.208  0.1127E+00  0.3433E+01
     -2.140  0.9595E-01  0.3439E+01
     -2.072  0.6945E-01  0.3444E+01
     -2.004  0.4843E-01  0.3447E+01
     -1.937  0.5213E-01  0.3451E+01
     -1.869  0.8761E-01  0.3457E+01
     -1.801  0.1373E+00  0.3466E+01
     -1.733  0.1681E+00  0.3477E+01
     -1.665  0.1606E+00  0.3488E+01
     -1.598  0.1261E+00  0.3497E+01
     -1.530  0.8978E-01  0.3503E+01
     -1.462  0.6278E-01  0.3507E+01
     -1.394  0.4261E-01  0.3510E+01
     -1.326  0.3402E-01  0.3512E+01
     -1.259  0.5293E-01  0.3516E+01
     -1.191  0.1016E+00  0.3523E+01
     -1.123  0.1496E+00  0.3533E+01
     -1.055  0.1571E+00  0.3543E+01
     -0.987  0.1184E+00  0.3551E+01
     -0.920  0.6777E-01  0.3556E+01
     -0.852  0.4374E-01  0.3559E+01
     -0.784  0.5952E-01  0.3563E+01
     -0.716  0.1026E+00  0.3570E+01
     -0.649  0.1485E+00  0.3580E+01
     -0.581  0.1767E+00  0.3592E+01
     -0.513  0.1806E+00  0.3604E+01
     -0.445  0.1635E+00  0.3615E+01
     -0.377  0.1312E+00  0.3624E+01
     -0.310  0.9158E-01  0.3631E+01
     -0.242  0.5603E-01  0.3634E+01
     -0.174  0.3744E-01  0.3637E+01
     -0.106  0.4558E-01  0.3640E+01
     -0.038  0.7852E-01  0.3645E+01
      0.029  0.1178E+00  0.3653E+01
      0.097  0.1379E+00  0.3663E+01
      0.165  0.1258E+00  0.3671E+01
      0.233  0.9136E-01  0.3677E+01
      0.300  0.5958E-01  0.3681E+01
      0.368  0.5190E-01  0.3685E+01
      0.436  0.7207E-01  0.3690E+01
      0.504  0.1054E+00  0.3697E+01
      0.572  0.1279E+00  0.3706E+01
      0.639  0.1224E+00  0.3714E+01
      0.707  0.9498E-01  0.3720E+01
      0.775  0.7476E-01  0.3725E+01
      0.843  0.8513E-01  0.3731E+01
      0.911  0.1173E+00  0.3739E+01
      0.978  0.1411E+00  0.3749E+01
      1.046  0.1395E+00  0.3758E+01
      1.114  0.1212E+00  0.3766E+01
      1.182  0.1043E+00  0.3773E+01
      1.249  0.9635E-01  0.3780E+01
      1.317  0.9268E-01  0.3786E+01
      1.385  0.8598E-01  0.3792E+01
      1.453  0.7423E-01  0.3797E+01
      1.521  0.6179E-01  0.3801E+01
      1.588  0.5313E-01  0.3805E+01
      1.656  0.4687E-01  0.3808E+01
      1.724  0.3780E-01  0.3811E+01
      1.792  0.2601E-01  0.3812E+01
      1.860  0.2233E-01  0.3814E+01
      1.927  0.4038E-01  0.3817E+01
      1.995  0.7973E-01  0.3822E+01
      2.063  0.1201E+00  0.3830E+01
      2.131  0.1382E+00  0.3840E+01
      2.198  0.1306E+00  0.3848E+01
      2.266  0.1162E+00  0.3856E+01
      2.334  0.1160E+00  0.3864E+01
      2.402  0.1320E+00  0.3873E+01
      2.470  0.1474E+00  0.3883E+01
      2.537  0.1448E+00  0.3893E+01
      2.605  0.1234E+00  0.3901E+01
      2.673  0.9861E-01  0.3908E+01
      2.741  0.8679E-01  0.3914E+01
      2.809  0.9051E-01  0.3920E+01
      2.876  0.1007E+00  0.3927E+01
      2.944  0.1093E+00  0.3934E+01
      3.012  0.1130E+00  0.3942E+01
      3.080  0.1106E+00  0.3949E+01
      3.148  0.1043E+00  0.3956E+01
      3.215  0.1011E+00  0.3963E+01
      3.283  0.1095E+00  0.3971E+01
      3.351  0.1340E+00  0.3980E+01
      3.419  0.1708E+00  0.3991E+01
      3.486  0.2059E+00  0.4005E+01
      3.554  0.2232E+00  0.4020E+01
      3.622  0.2174E+00  0.4035E+01
      3.690  0.1963E+00  0.4048E+01
      3.758  0.1718E+00  0.4060E+01
      3.825  0.1522E+00  0.4070E+01
      3.893  0.1426E+00  0.4080E+01
      3.961  0.1443E+00  0.4090E+01
      4.029  0.1502E+00  0.4100E+01
      4.097  0.1488E+00  0.4110E+01
      4.164  0.1387E+00  0.4120E+01
      4.232  0.1348E+00  0.4129E+01
      4.300  0.1538E+00  0.4139E+01
      4.368  0.1946E+00  0.4152E+01
      4.435  0.2347E+00  0.4168E+01
      4.503  0.2498E+00  0.4185E+01
      4.571  0.2374E+00  0.4201E+01
      4.639  0.2162E+00  0.4216E+01
      4.707  0.2018E+00  0.4230E+01
      4.774  0.1944E+00  0.4243E+01
      4.842  0.1891E+00  0.4256E+01
      4.910  0.1824E+00  0.4268E+01
      4.978  0.1667E+00  0.4279E+01
      5.046  0.1346E+00  0.4288E+01
      5.113  0.9364E-01  0.4295E+01
      5.181  0.6384E-01  0.4299E+01
      5.249  0.5619E-01  0.4303E+01
      5.317  0.6210E-01  0.4307E+01
      5.384  0.6499E-01  0.4311E+01
      5.452  0.5610E-01  0.4315E+01
      5.520  0.3830E-01  0.4318E+01
      5.588  0.1971E-01  0.4319E+01
      5.656  0.6432E-02  0.4320E+01
      5.723 -0.1314E-03  0.4320E+01
      5.791 -0.1822E-02  0.4320E+01
      5.859 -0.1083E-02  0.4319E+01
      5.927  0.4673E-03  0.4319E+01
      5.995  0.1897E-02  0.4320E+01
      6.062  0.2529E-02  0.4320E+01
      6.130  0.2133E-02  0.4320E+01
      6.198  0.1159E-02  0.4320E+01
      6.266  0.3107E-03  0.4320E+01
      6.333 -0.8105E-04  0.4320E+01
      6.401 -0.1328E-03  0.4320E+01
      6.469 -0.7498E-04  0.4320E+01
      6.537 -0.2727E-04  0.4320E+01
      6.605 -0.7137E-05  0.4320E+01
      6.672 -0.1400E-05  0.4320E+01
      6.740 -0.2101E-06  0.4320E+01
      6.808 -0.2439E-07  0.4320E+01
      6.876 -0.2204E-08  0.4320E+01
      6.944 -0.1559E-09  0.4320E+01
      7.011 -0.8660E-11  0.4320E+01
      7.079 -0.3785E-12  0.4320E+01
      7.147 -0.1304E-13  0.4320E+01
      7.215 -0.3542E-15  0.4320E+01
      7.283 -0.8189E-17  0.4320E+01
      7.350  0.0000E+00  0.4320E+01
      7.418  0.0000E+00  0.4320E+01
      7.486  0.0000E+00  0.4320E+01
      7.554  0.0000E+00  0.4320E+01
      7.621  0.0000E+00  0.4320E+01
      7.689  0.0000E+00  0.4320E+01
      7.757  0.0000E+00  0.4320E+01
      7.825  0.0000E+00  0.4320E+01
      7.893  0.0000E+00  0.4320E+01
      7.960  0.0000E+00  0.4320E+01
      8.028  0.0000E+00  0.4320E+01
      8.02816549    -12.30789487  301     -1.21305778      1.00000000
    -12.308  0.0000E+00  0.0000E+00  0.0000E+00
    -12.240  0.0000E+00  0.0000E+00  0.0000E+00
    -12.172  0.0000E+00  0.0000E+00  0.0000E+00
    -12.105  0.0000E+00  0.0000E+00  0.0000E+00
    -12.037  0.0000E+00  0.0000E+00  0.0000E+00
    -11.969 -0.3939E-31 -0.2774E-32 -0.2541E-33
    -11.901 -0.9347E-29 -0.6582E-30 -0.6029E-31
    -11.833 -0.1765E-26 -0.1243E-27 -0.1139E-28
    -11.766 -0.2643E-24 -0.1862E-25 -0.1706E-26
    -11.698 -0.3138E-22 -0.2210E-23 -0.2025E-24
    -11.630 -0.2953E-20 -0.2080E-21 -0.1906E-22
    -11.562 -0.2201E-18 -0.1551E-19 -0.1421E-20
    -11.494 -0.1300E-16 -0.9158E-18 -0.8397E-19
    -11.427 -0.5884E-15 -0.4146E-16 -0.3804E-17
    -11.359 -0.2169E-13 -0.1529E-14 -0.1404E-15
    -11.291 -0.6319E-12 -0.4457E-13 -0.4098E-14
    -11.223 -0.1454E-10 -0.1026E-11 -0.9458E-13
    -11.156 -0.2641E-09 -0.1867E-10 -0.1726E-11
    -11.088 -0.3785E-08 -0.2681E-09 -0.2489E-10
    -11.020 -0.4277E-07 -0.3038E-08 -0.2841E-09
    -10.952 -0.3807E-06 -0.2717E-07 -0.2568E-08
    -10.884 -0.2670E-05 -0.1917E-06 -0.1841E-07
    -10.817 -0.1473E-04 -0.1068E-05 -0.1048E-06
    -10.749 -0.6376E-04 -0.4686E-05 -0.4735E-06
    -10.681 -0.2147E-03 -0.1608E-04 -0.1688E-05
    -10.613 -0.5490E-03 -0.4213E-04 -0.4646E-05
    -10.545 -0.9869E-03 -0.7858E-04 -0.9274E-05
    -10.478 -0.8755E-03 -0.7705E-04 -0.1069E-04
    -10.410  0.1317E-02  0.8267E-04  0.4576E-05
    -10.342  0.7203E-02  0.5329E-03  0.5213E-04
    -10.274  0.1617E-01  0.1233E-02  0.1279E-03
    -10.207  0.2415E-01  0.1870E-02  0.1991E-03
    -10.139  0.2718E-01  0.2161E-02  0.2470E-03
    -10.071  0.2692E-01  0.2302E-02  0.3229E-03
    -10.003  0.2932E-01  0.2804E-02  0.5068E-03
     -9.935  0.3605E-01  0.3716E-02  0.7728E-03
     -9.868  0.4070E-01  0.4314E-02  0.9403E-03
     -9.800  0.3620E-01  0.3862E-02  0.8422E-03
     -9.732  0.2443E-01  0.2632E-02  0.5816E-03
     -9.664  0.1624E-01  0.1944E-02  0.5692E-03
     -9.596  0.2094E-01  0.2930E-02  0.1157E-02
     -9.529  0.3577E-01  0.5194E-02  0.2172E-02
     -9.461  0.4800E-01  0.7043E-02  0.3004E-02
     -9.393  0.4867E-01  0.7250E-02  0.3258E-02
     -9.325  0.4051E-01  0.6050E-02  0.3099E-02
     -9.257  0.3169E-01  0.4314E-02  0.2931E-02
     -9.190  0.2778E-01  0.2804E-02  0.3168E-02
     -9.122  0.3177E-01  0.2550E-02  0.4396E-02
     -9.054  0.4537E-01  0.4677E-02  0.7152E-02
     -8.986  0.6596E-01  0.8900E-02  0.1113E-01
     -8.919  0.8501E-01  0.1286E-01  0.1480E-01
     -8.851  0.9280E-01  0.1404E-01  0.1636E-01
     -8.783  0.8554E-01  0.1211E-01  0.1512E-01
     -8.715  0.6681E-01  0.8698E-02  0.1182E-01
     -8.647  0.4510E-01  0.5439E-02  0.8861E-02
     -8.580  0.3436E-01  0.3841E-02  0.1169E-01
     -8.512  0.5061E-01  0.6104E-02  0.2703E-01
     -8.444  0.9530E-01  0.1323E-01  0.5457E-01
     -8.376  0.1438E+00  0.2198E-01  0.8209E-01
     -8.308  0.1643E+00  0.2644E-01  0.9651E-01
     -8.241  0.1498E+00  0.2414E-01  0.1007E+00
     -8.173  0.1218E+00  0.1897E-01  0.1114E+00
     -8.105  0.1044E+00  0.1711E-01  0.1391E+00
     -8.037  0.1078E+00  0.2124E-01  0.1798E+00
     -7.970  0.1310E+00  0.2927E-01  0.2318E+00
     -7.902  0.1672E+00  0.3707E-01  0.3082E+00
     -7.834  0.2014E+00  0.4125E-01  0.4132E+00
     -7.766  0.2154E+00  0.4030E-01  0.5122E+00
     -7.698  0.2026E+00  0.3538E-01  0.5601E+00
     -7.631  0.1783E+00  0.3114E-01  0.5744E+00
     -7.563  0.1703E+00  0.3398E-01  0.6498E+00
     -7.495  0.1930E+00  0.4652E-01  0.8626E+00
     -7.427  0.2304E+00  0.6323E-01  0.1160E+01
     -7.359  0.2472E+00  0.7406E-01  0.1382E+01
     -7.292  0.2223E+00  0.7382E-01  0.1419E+01
     -7.224  0.1688E+00  0.6662E-01  0.1324E+01
     -7.156  0.1173E+00  0.5970E-01  0.1228E+01
     -7.088  0.8456E-01  0.5517E-01  0.1171E+01
     -7.021  0.6582E-01  0.5004E-01  0.1087E+01
     -6.953  0.5058E-01  0.4255E-01  0.9457E+00
     -6.885  0.3661E-01  0.3500E-01  0.8042E+00
     -6.817  0.2762E-01  0.2985E-01  0.7172E+00
     -6.749  0.2501E-01  0.2648E-01  0.6682E+00
     -6.682  0.2595E-01  0.2317E-01  0.6345E+00
     -6.614  0.2726E-01  0.2036E-01  0.6566E+00
     -6.546  0.2785E-01  0.2007E-01  0.7874E+00
     -6.478  0.2783E-01  0.2290E-01  0.9956E+00
     -6.410  0.2751E-01  0.2705E-01  0.1171E+01
     -6.343  0.2712E-01  0.3008E-01  0.1229E+01
     -6.275  0.2668E-01  0.3068E-01  0.1196E+01
     -6.207  0.2616E-01  0.2929E-01  0.1187E+01
     -6.139  0.2586E-01  0.2787E-01  0.1304E+01
     -6.072  0.2637E-01  0.2838E-01  0.1528E+01
     -6.004  0.2856E-01  0.3098E-01  0.1731E+01
     -5.936  0.3349E-01  0.3405E-01  0.1821E+01
     -5.868  0.4055E-01  0.3590E-01  0.1831E+01
     -5.800  0.4621E-01  0.3607E-01  0.1847E+01
     -5.733  0.4686E-01  0.3550E-01  0.1904E+01
     -5.665  0.4336E-01  0.3589E-01  0.1989E+01
     -5.597  0.4046E-01  0.3837E-01  0.2100E+01
     -5.529  0.4195E-01  0.4252E-01  0.2252E+01
     -5.461  0.4778E-01  0.4727E-01  0.2454E+01
     -5.394  0.5518E-01  0.5212E-01  0.2665E+01
     -5.326  0.6040E-01  0.5653E-01  0.2779E+01
     -5.258  0.6032E-01  0.5902E-01  0.2720E+01
     -5.190  0.5566E-01  0.5921E-01  0.2541E+01
     -5.122  0.5145E-01  0.5925E-01  0.2375E+01
     -5.055  0.5141E-01  0.6118E-01  0.2276E+01
     -4.987  0.5340E-01  0.6357E-01  0.2174E+01
     -4.919  0.5276E-01  0.6304E-01  0.1989E+01
     -4.851  0.4861E-01  0.5907E-01  0.1734E+01
     -4.784  0.4486E-01  0.5618E-01  0.1517E+01
     -4.716  0.4498E-01  0.5932E-01  0.1438E+01
     -4.648  0.4767E-01  0.6673E-01  0.1511E+01
     -4.580  0.4886E-01  0.7080E-01  0.1695E+01
     -4.512  0.4721E-01  0.6676E-01  0.1963E+01
     -4.445  0.4473E-01  0.5760E-01  0.2260E+01
     -4.377  0.4246E-01  0.4933E-01  0.2446E+01
     -4.309  0.3866E-01  0.4453E-01  0.2377E+01
     -4.241  0.3225E-01  0.4197E-01  0.2082E+01
     -4.173  0.2616E-01  0.4050E-01  0.1789E+01
     -4.106  0.2486E-01  0.4049E-01  0.1731E+01
     -4.038  0.2949E-01  0.4148E-01  0.1930E+01
     -3.970  0.3704E-01  0.4134E-01  0.2229E+01
     -3.902  0.4403E-01  0.3914E-01  0.2467E+01
     -3.835  0.4899E-01  0.3677E-01  0.2571E+01
     -3.767  0.5191E-01  0.3619E-01  0.2541E+01
     -3.699  0.5310E-01  0.3700E-01  0.2454E+01
     -3.631  0.5295E-01  0.3794E-01  0.2451E+01
     -3.563  0.5172E-01  0.3902E-01  0.2600E+01
     -3.496  0.4925E-01  0.4052E-01  0.2776E+01
     -3.428  0.4528E-01  0.4085E-01  0.2778E+01
     -3.360  0.4046E-01  0.3768E-01  0.2566E+01
     -3.292  0.3699E-01  0.3149E-01  0.2269E+01
     -3.224  0.3687E-01  0.2601E-01  0.1991E+01
     -3.157  0.3900E-01  0.2429E-01  0.1732E+01
     -3.089  0.4056E-01  0.2568E-01  0.1476E+01
     -3.021  0.4158E-01  0.2740E-01  0.1237E+01
     -2.953  0.4472E-01  0.2733E-01  0.1007E+01
     -2.886  0.4959E-01  0.2513E-01  0.7562E+00
     -2.818  0.5105E-01  0.2145E-01  0.4969E+00
     -2.750  0.4493E-01  0.1703E-01  0.2772E+00
     -2.682  0.3421E-01  0.1269E-01  0.1306E+00
     -2.614  0.2783E-01  0.9955E-02  0.5637E-01
     -2.547  0.3257E-01  0.1091E-01  0.4005E-01
     -2.479  0.4581E-01  0.1672E-01  0.6579E-01
     -2.411  0.5791E-01  0.2639E-01  0.1179E+00
     -2.343  0.6190E-01  0.3680E-01  0.1817E+00
     -2.275  0.5791E-01  0.4394E-01  0.2395E+00
     -2.208  0.4878E-01  0.4499E-01  0.2674E+00
     -2.140  0.3633E-01  0.3975E-01  0.2456E+00
     -2.072  0.2332E-01  0.3096E-01  0.1808E+00
     -2.004  0.1639E-01  0.2427E-01  0.1105E+00
     -1.937  0.2480E-01  0.2647E-01  0.7845E-01
     -1.869  0.5258E-01  0.3996E-01  0.1010E+00
     -1.801  0.8912E-01  0.5774E-01  0.1545E+00
     -1.733  0.1119E+00  0.6757E-01  0.1946E+00
     -1.665  0.1065E+00  0.6381E-01  0.1925E+00
     -1.598  0.8085E-01  0.5266E-01  0.1545E+00
     -1.530  0.5455E-01  0.4287E-01  0.1063E+00
     -1.462  0.3713E-01  0.3531E-01  0.6522E-01
     -1.394  0.2573E-01  0.2665E-01  0.3693E-01
     -1.326  0.1943E-01  0.2074E-01  0.3334E-01
     -1.259  0.2475E-01  0.2845E-01  0.7480E-01
     -1.191  0.4367E-01  0.5262E-01  0.1592E+00
     -1.123  0.6330E-01  0.7781E-01  0.2373E+00
     -1.055  0.6573E-01  0.8297E-01  0.2474E+00
     -0.987  0.4789E-01  0.6477E-01  0.1811E+00
     -0.920  0.2580E-01  0.4075E-01  0.9223E-01
     -0.852  0.2013E-01  0.3031E-01  0.3977E-01
     -0.784  0.4047E-01  0.3955E-01  0.4273E-01
     -0.716  0.7866E-01  0.6196E-01  0.8444E-01
     -0.649  0.1139E+00  0.8570E-01  0.1366E+00
     -0.581  0.1286E+00  0.1016E+00  0.1760E+00
     -0.513  0.1204E+00  0.1075E+00  0.1898E+00
     -0.445  0.9784E-01  0.1045E+00  0.1729E+00
     -0.377  0.6988E-01  0.9300E-01  0.1300E+00
     -0.310  0.4229E-01  0.7403E-01  0.7669E-01
     -0.242  0.1985E-01  0.5268E-01  0.3342E-01
     -0.174  0.8209E-02  0.3777E-01  0.1558E-01
     -0.106  0.1344E-01  0.3646E-01  0.3040E-01
     -0.038  0.3644E-01  0.4794E-01  0.7307E-01
      0.029  0.6687E-01  0.6309E-01  0.1223E+00
      0.097  0.8668E-01  0.7149E-01  0.1489E+00
      0.165  0.8353E-01  0.6861E-01  0.1368E+00
      0.233  0.6041E-01  0.5871E-01  0.9567E-01
      0.300  0.3209E-01  0.5268E-01  0.5188E-01
      0.368  0.1419E-01  0.6031E-01  0.2875E-01
      0.436  0.1489E-01  0.8156E-01  0.3365E-01
      0.504  0.3218E-01  0.1051E+00  0.5714E-01
      0.572  0.5428E-01  0.1151E+00  0.7964E-01
      0.639  0.6588E-01  0.1022E+00  0.8443E-01
      0.707  0.6212E-01  0.7489E-01  0.7370E-01
      0.775  0.5582E-01  0.5722E-01  0.6944E-01
      0.843  0.6274E-01  0.6574E-01  0.8840E-01
      0.911  0.8051E-01  0.9019E-01  0.1184E+00
      0.978  0.9137E-01  0.1052E+00  0.1305E+00
      1.046  0.8500E-01  0.9850E-01  0.1134E+00
      1.114  0.6957E-01  0.7919E-01  0.8283E-01
      1.182  0.5911E-01  0.6168E-01  0.6012E-01
      1.249  0.5697E-01  0.5225E-01  0.5222E-01
      1.317  0.5480E-01  0.4959E-01  0.5220E-01
      1.385  0.4439E-01  0.4987E-01  0.5090E-01
      1.453  0.2710E-01  0.4988E-01  0.4531E-01
      1.521  0.1172E-01  0.4881E-01  0.3894E-01
      1.588  0.5127E-02  0.4732E-01  0.3603E-01
      1.656  0.6012E-02  0.4426E-01  0.3568E-01
      1.724  0.7617E-02  0.3686E-01  0.3259E-01
      1.792  0.6503E-02  0.2602E-01  0.2474E-01
      1.860  0.8825E-02  0.1988E-01  0.1910E-01
      1.927  0.2554E-01  0.2809E-01  0.2616E-01
      1.995  0.5870E-01  0.5039E-01  0.4721E-01
      2.063  0.9500E-01  0.7314E-01  0.6996E-01
      2.131  0.1179E+00  0.8108E-01  0.8021E-01
      2.198  0.1245E+00  0.7261E-01  0.7649E-01
      2.266  0.1248E+00  0.6090E-01  0.7044E-01
      2.334  0.1269E+00  0.5910E-01  0.7308E-01
      2.402  0.1276E+00  0.6680E-01  0.8293E-01
      2.470  0.1179E+00  0.7310E-01  0.8863E-01
      2.537  0.9430E-01  0.7036E-01  0.8182E-01
      2.605  0.6529E-01  0.6070E-01  0.6532E-01
      2.673  0.4731E-01  0.5055E-01  0.4973E-01
      2.741  0.5232E-01  0.4394E-01  0.4385E-01
      2.809  0.7854E-01  0.4092E-01  0.4864E-01
      2.876  0.1145E+00  0.3988E-01  0.5898E-01
      2.944  0.1473E+00  0.4005E-01  0.6878E-01
      3.012  0.1637E+00  0.4085E-01  0.7285E-01
      3.080  0.1560E+00  0.4038E-01  0.6841E-01
      3.148  0.1323E+00  0.3774E-01  0.5892E-01
      3.215  0.1127E+00  0.3644E-01  0.5294E-01
      3.283  0.1105E+00  0.4338E-01  0.5671E-01
      3.351  0.1237E+00  0.6331E-01  0.6935E-01
      3.419  0.1417E+00  0.9291E-01  0.8460E-01
      3.486  0.1538E+00  0.1208E+00  0.9503E-01
      3.554  0.1521E+00  0.1357E+00  0.9597E-01
      3.622  0.1335E+00  0.1341E+00  0.8754E-01
      3.690  0.1037E+00  0.1202E+00  0.7375E-01
      3.758  0.7638E-01  0.1021E+00  0.6030E-01
      3.825  0.6383E-01  0.8888E-01  0.5260E-01
      3.893  0.6762E-01  0.8658E-01  0.5345E-01
      3.961  0.7806E-01  0.9268E-01  0.6006E-01
      4.029  0.8156E-01  0.9586E-01  0.6395E-01
      4.097  0.7118E-01  0.8570E-01  0.5769E-01
      4.164  0.5330E-01  0.6540E-01  0.4361E-01
      4.232  0.4295E-01  0.5203E-01  0.3318E-01
      4.300  0.5120E-01  0.6187E-01  0.3620E-01
      4.368  0.7560E-01  0.9482E-01  0.5199E-01
      4.435  0.1006E+00  0.1319E+00  0.7066E-01
      4.503  0.1092E+00  0.1502E+00  0.8197E-01
      4.571  0.9784E-01  0.1430E+00  0.8343E-01
      4.639  0.7856E-01  0.1231E+00  0.7926E-01
      4.707  0.6464E-01  0.1053E+00  0.7263E-01
      4.774  0.5914E-01  0.9413E-01  0.6334E-01
      4.842  0.5754E-01  0.8890E-01  0.5261E-01
      4.910  0.5465E-01  0.8735E-01  0.4356E-01
      4.978  0.4685E-01  0.8219E-01  0.3621E-01
      5.046  0.3360E-01  0.6605E-01  0.2754E-01
      5.113  0.1892E-01  0.4240E-01  0.1737E-01
      5.181  0.8589E-02  0.2309E-01  0.9379E-02
      5.249  0.4803E-02  0.1448E-01  0.6005E-02
      5.317  0.5212E-02  0.1263E-01  0.5802E-02
      5.384  0.6360E-02  0.1111E-01  0.5991E-02
      5.452  0.6383E-02  0.7786E-02  0.5232E-02
      5.520  0.5060E-02  0.4046E-02  0.3702E-02
      5.588  0.3021E-02  0.1388E-02  0.2034E-02
      5.656  0.1161E-02  0.8723E-04  0.7382E-03
      5.723  0.7004E-04 -0.3015E-03  0.2724E-04
      5.791 -0.2616E-03 -0.2763E-03 -0.1849E-03
      5.859 -0.1841E-03 -0.1322E-03 -0.1265E-03
      5.927  0.4084E-05  0.1650E-04  0.1628E-04
      5.995  0.1614E-03  0.1298E-03  0.1427E-03
      6.062  0.2282E-03  0.1775E-03  0.1978E-03
      6.130  0.1941E-03  0.1502E-03  0.1679E-03
      6.198  0.1057E-03  0.8168E-04  0.9139E-04
      6.266  0.2833E-04  0.2189E-04  0.2450E-04
      6.333 -0.7390E-05 -0.5712E-05 -0.6393E-05
      6.401 -0.1211E-04 -0.9362E-05 -0.1048E-04
      6.469 -0.6837E-05 -0.5284E-05 -0.5914E-05
      6.537 -0.2486E-05 -0.1922E-05 -0.2151E-05
      6.605 -0.6507E-06 -0.5029E-06 -0.5629E-06
      6.672 -0.1277E-06 -0.9868E-07 -0.1104E-06
      6.740 -0.1916E-07 -0.1481E-07 -0.1657E-07
      6.808 -0.2223E-08 -0.1719E-08 -0.1923E-08
      6.876 -0.2010E-09 -0.1553E-09 -0.1739E-09
      6.944 -0.1422E-10 -0.1099E-10 -0.1230E-10
      7.011 -0.7896E-12 -0.6103E-12 -0.6830E-12
      7.079 -0.3451E-13 -0.2668E-13 -0.2985E-13
      7.147 -0.1189E-14 -0.9191E-15 -0.1029E-14
      7.215 -0.3229E-16 -0.2496E-16 -0.2793E-16
      7.283 -0.7467E-18 -0.5771E-18 -0.6459E-18
      7.350  0.0000E+00  0.0000E+00  0.0000E+00
      7.418  0.0000E+00  0.0000E+00  0.0000E+00
      7.486  0.0000E+00  0.0000E+00  0.0000E+00
      7.554  0.0000E+00  0.0000E+00  0.0000E+00
      7.621  0.0000E+00  0.0000E+00  0.0000E+00
      7.689  0.0000E+00  0.0000E+00  0.0000E+00
      7.757  0.0000E+00  0.0000E+00  0.0000E+00
      7.825  0.0000E+00  0.0000E+00  0.0000E+00
      7.893  0.0000E+00  0.0000E+00  0.0000E+00
      7.960  0.0000E+00  0.0000E+00  0.0000E+00
      8.028  0.0000E+00  0.0000E+00  0.0000E+00
      8.02816549    -12.30789487  301     -1.21305778      1.00000000
    -12.308  0.0000E+00  0.0000E+00  0.0000E+00
    -12.240  0.0000E+00  0.0000E+00  0.0000E+00
    -12.172  0.0000E+00  0.0000E+00  0.0000E+00
    -12.105  0.0000E+00  0.0000E+00  0.0000E+00
    -12.037  0.0000E+00  0.0000E+00  0.0000E+00
    -11.969 -0.3939E-31 -0.2774E-32 -0.2541E-33
    -11.901 -0.9347E-29 -0.6582E-30 -0.6029E-31
    -11.833 -0.1765E-26 -0.1243E-27 -0.1139E-28
    -11.766 -0.2643E-24 -0.1862E-25 -0.1706E-26
    -11.698 -0.3138E-22 -0.2210E-23 -0.2025E-24
    -11.630 -0.2953E-20 -0.2080E-21 -0.1906E-22
    -11.562 -0.2201E-18 -0.1551E-19 -0.1421E-20
    -11.494 -0.1300E-16 -0.9158E-18 -0.8397E-19
    -11.427 -0.5884E-15 -0.4146E-16 -0.3804E-17
    -11.359 -0.2169E-13 -0.1529E-14 -0.1404E-15
    -11.291 -0.6319E-12 -0.4457E-13 -0.4098E-14
    -11.223 -0.1454E-10 -0.1026E-11 -0.9457E-13
    -11.156 -0.2641E-09 -0.1867E-10 -0.1725E-11
    -11.088 -0.3785E-08 -0.2681E-09 -0.2489E-10
    -11.020 -0.4277E-07 -0.3038E-08 -0.2841E-09
    -10.952 -0.3807E-06 -0.2717E-07 -0.2568E-08
    -10.884 -0.2670E-05 -0.1917E-06 -0.1841E-07
    -10.817 -0.1473E-04 -0.1068E-05 -0.1048E-06
    -10.749 -0.6376E-04 -0.4686E-05 -0.4735E-06
    -10.681 -0.2147E-03 -0.1608E-04 -0.1688E-05
    -10.613 -0.5490E-03 -0.4213E-04 -0.4646E-05
    -10.545 -0.9869E-03 -0.7858E-04 -0.9274E-05
    -10.478 -0.8755E-03 -0.7705E-04 -0.1069E-04
    -10.410  0.1317E-02  0.8267E-04  0.4575E-05
    -10.342  0.7203E-02  0.5329E-03  0.5213E-04
    -10.274  0.1617E-01  0.1233E-02  0.1279E-03
    -10.207  0.2415E-01  0.1870E-02  0.1991E-03
    -10.139  0.2718E-01  0.2161E-02  0.2470E-03
    -10.071  0.2692E-01  0.2302E-02  0.3229E-03
    -10.003  0.2932E-01  0.2804E-02  0.5068E-03
     -9.935  0.3605E-01  0.3716E-02  0.7728E-03
     -9.868  0.4070E-01  0.4314E-02  0.9403E-03
     -9.800  0.3620E-01  0.3862E-02  0.8422E-03
     -9.732  0.2443E-01  0.2632E-02  0.5816E-03
     -9.664  0.1624E-01  0.1944E-02  0.5692E-03
     -9.596  0.2094E-01  0.2930E-02  0.1157E-02
     -9.529  0.3577E-01  0.5194E-02  0.2172E-02
     -9.461  0.4800E-01  0.7043E-02  0.3004E-02
     -9.393  0.4867E-01  0.7250E-02  0.3258E-02
     -9.325  0.4051E-01  0.6050E-02  0.3099E-02
     -9.257  0.3169E-01  0.4314E-02  0.2931E-02
     -9.190  0.2778E-01  0.2804E-02  0.3168E-02
     -9.122  0.3177E-01  0.2550E-02  0.4396E-02
     -9.054  0.4537E-01  0.4677E-02  0.7152E-02
     -8.986  0.6596E-01  0.8900E-02  0.1113E-01
     -8.919  0.8501E-01  0.1286E-01  0.1480E-01
     -8.851  0.9280E-01  0.1404E-01  0.1636E-01
     -8.783  0.8554E-01  0.1211E-01  0.1512E-01
     -8.715  0.6681E-01  0.8698E-02  0.1182E-01
     -8.647  0.4510E-01  0.5439E-02  0.8861E-02
     -8.580  0.3436E-01  0.3841E-02  0.1169E-01
     -8.512  0.5061E-01  0.6104E-02  0.2703E-01
     -8.444  0.9530E-01  0.1323E-01  0.5457E-01
     -8.376  0.1438E+00  0.2198E-01  0.8209E-01
     -8.308  0.1643E+00  0.2644E-01  0.9651E-01
     -8.241  0.1498E+00  0.2414E-01  0.1007E+00
     -8.173  0.1218E+00  0.1897E-01  0.1114E+00
     -8.105  0.1044E+00  0.1711E-01  0.1391E+00
     -8.037  0.1078E+00  0.2124E-01  0.1798E+00
     -7.970  0.1310E+00  0.2927E-01  0.2318E+00
     -7.902  0.1672E+00  0.3707E-01  0.3082E+00
     -7.834  0.2014E+00  0.4125E-01  0.4132E+00
     -7.766  0.2154E+00  0.4030E-01  0.5122E+00
     -7.698  0.2026E+00  0.3538E-01  0.5601E+00
     -7.631  0.1783E+00  0.3114E-01  0.5744E+00
     -7.563  0.1703E+00  0.3398E-01  0.6498E+00
     -7.495  0.1930E+00  0.4652E-01  0.8626E+00
     -7.427  0.2304E+00  0.6323E-01  0.1160E+01
     -7.359  0.2472E+00  0.7406E-01  0.1382E+01
     -7.292  0.2223E+00  0.7382E-01  0.1419E+01
     -7.224  0.1688E+00  0.6662E-01  0.1324E+01
     -7.156  0.1173E+00  0.5970E-01  0.1228E+01
     -7.088  0.8456E-01  0.5517E-01  0.1171E+01
     -7.021  0.6582E-01  0.5004E-01  0.1087E+01
     -6.953  0.5058E-01  0.4255E-01  0.9457E+00
     -6.885  0.3661E-01  0.3500E-01  0.8042E+00
     -6.817  0.2762E-01  0.2985E-01  0.7172E+00
     -6.749  0.2501E-01  0.2648E-01  0.6682E+00
     -6.682  0.2595E-01  0.2317E-01  0.6345E+00
     -6.614  0.2726E-01  0.2036E-01  0.6566E+00
     -6.546  0.2785E-01  0.2007E-01  0.7874E+00
     -6.478  0.2783E-01  0.2290E-01  0.9956E+00
     -6.410  0.2751E-01  0.2705E-01  0.1171E+01
     -6.343  0.2712E-01  0.3008E-01  0.1229E+01
     -6.275  0.2668E-01  0.3068E-01  0.1196E+01