  96  96   1   0
  0.3279297E+02  0.1082508E-08  0.1082506E-08  0.3105018E-08  0.0000000E+00
  1.000000000000000E-004
  CAR 
 unknown system                          
     15.39663974     -8.69384051  301     -0.04794676      1.00000000
     -8.694  0.0000E+00  0.0000E+00
     -8.614  0.0000E+00  0.0000E+00
     -8.533  0.0000E+00  0.0000E+00
     -8.453 -0.7792E-31 -0.6257E-32
     -8.373 -0.3358E-25 -0.2697E-26
     -8.292 -0.3942E-20 -0.3166E-21
     -8.212 -0.1257E-15 -0.1010E-16
     -8.132 -0.1048E-11 -0.8413E-13
     -8.051 -0.2400E-08 -0.1928E-09
     -7.971 -0.1450E-05 -0.1167E-06
     -7.891 -0.2245E-03 -0.1814E-04
     -7.811 -0.8218E-02 -0.6781E-03
     -7.730 -0.5154E-01 -0.4817E-02
     -7.650  0.1211E+00  0.4910E-02
     -7.570  0.8443E+00  0.7271E-01
     -7.489  0.3803E+01  0.3781E+00
     -7.409  0.5359E+01  0.8084E+00
     -7.329  0.7911E+00  0.8719E+00
     -7.248  0.2256E+01  0.1053E+01
     -7.168  0.6443E+01  0.1570E+01
     -7.088  0.6399E+01  0.2084E+01
     -7.008  0.3680E+01  0.2380E+01
     -6.927  0.7947E+00  0.2444E+01
     -6.847  0.5130E+01  0.2856E+01
     -6.767  0.1291E+02  0.3892E+01
     -6.686  0.9103E+01  0.4623E+01
     -6.606  0.4726E+01  0.5003E+01
     -6.526  0.1342E+02  0.6081E+01
     -6.445  0.9634E+01  0.6854E+01
     -6.365  0.1346E+01  0.6962E+01
     -6.285  0.2430E+01  0.7157E+01
     -6.204  0.1457E+02  0.8327E+01
     -6.124  0.1974E+02  0.9912E+01
     -6.044  0.1401E+02  0.1104E+02
     -5.964  0.1290E+02  0.1207E+02
     -5.883  0.1106E+02  0.1296E+02
     -5.803  0.1619E+02  0.1426E+02
     -5.723  0.3136E+02  0.1678E+02
     -5.642  0.5554E+02  0.2124E+02
     -5.562  0.8197E+02  0.2782E+02
     -5.482  0.7715E+02  0.3402E+02
     -5.401  0.9224E+02  0.4142E+02
     -5.321  0.1206E+03  0.5111E+02
     -5.241  0.1206E+03  0.6079E+02
     -5.161  0.1242E+03  0.7076E+02
     -5.080  0.1326E+03  0.8141E+02
     -5.000  0.1495E+03  0.9341E+02
     -4.920  0.1441E+03  0.1050E+03
     -4.839  0.1382E+03  0.1161E+03
     -4.759  0.1562E+03  0.1286E+03
     -4.679  0.1678E+03  0.1421E+03
     -4.598  0.1527E+03  0.1544E+03
     -4.518  0.1501E+03  0.1664E+03
     -4.438  0.1483E+03  0.1783E+03
     -4.358  0.1370E+03  0.1893E+03
     -4.277  0.1277E+03  0.1996E+03
     -4.197  0.1181E+03  0.2091E+03
     -4.117  0.1150E+03  0.2183E+03
     -4.036  0.1246E+03  0.2283E+03
     -3.956  0.1282E+03  0.2386E+03
     -3.876  0.1269E+03  0.2488E+03
     -3.795  0.1289E+03  0.2591E+03
     -3.715  0.1192E+03  0.2687E+03
     -3.635  0.1159E+03  0.2780E+03
     -3.555  0.1288E+03  0.2884E+03
     -3.474  0.1384E+03  0.2995E+03
     -3.394  0.1414E+03  0.3108E+03
     -3.314  0.1349E+03  0.3217E+03
     -3.233  0.1318E+03  0.3323E+03
     -3.153  0.1468E+03  0.3440E+03
     -3.073  0.1577E+03  0.3567E+03
     -2.992  0.1595E+03  0.3695E+03
     -2.912  0.1628E+03  0.3826E+03
     -2.832  0.1879E+03  0.3977E+03
     -2.752  0.2295E+03  0.4161E+03
     -2.671  0.2418E+03  0.4355E+03
     -2.591  0.2609E+03  0.4565E+03
     -2.511  0.2404E+03  0.4758E+03
     -2.430  0.2278E+03  0.4941E+03
     -2.350  0.2376E+03  0.5131E+03
     -2.270  0.2422E+03  0.5326E+03
     -2.189  0.2319E+03  0.5512E+03
     -2.109  0.2151E+03  0.5685E+03
     -2.029  0.1736E+03  0.5824E+03
     -1.949  0.1463E+03  0.5942E+03
     -1.868  0.1562E+03  0.6067E+03
     -1.788  0.1704E+03  0.6204E+03
     -1.708  0.1617E+03  0.6334E+03
     -1.627  0.1604E+03  0.6463E+03
     -1.547  0.1721E+03  0.6601E+03
     -1.467  0.1719E+03  0.6739E+03
     -1.386  0.1655E+03  0.6872E+03
     -1.306  0.1582E+03  0.6999E+03
     -1.226  0.1487E+03  0.7118E+03
     -1.145  0.1421E+03  0.7232E+03
     -1.065  0.1437E+03  0.7348E+03
     -0.985  0.1527E+03  0.7470E+03
     -0.905  0.1569E+03  0.7596E+03
     -0.824  0.1614E+03  0.7726E+03
     -0.744  0.1601E+03  0.7854E+03
     -0.664  0.1504E+03  0.7975E+03
     -0.583  0.1447E+03  0.8091E+03
     -0.503  0.1389E+03  0.8203E+03
     -0.423  0.1383E+03  0.8314E+03
     -0.342  0.1462E+03  0.8431E+03
     -0.262  0.1512E+03  0.8553E+03
     -0.182  0.1559E+03  0.8678E+03
     -0.102  0.1508E+03  0.8799E+03
     -0.021  0.1533E+03  0.8922E+03
      0.059  0.1676E+03  0.9057E+03
      0.139  0.1681E+03  0.9192E+03
      0.220  0.1810E+03  0.9337E+03
      0.300  0.1882E+03  0.9488E+03
      0.380  0.1653E+03  0.9621E+03
      0.461  0.1421E+03  0.9735E+03
      0.541  0.1420E+03  0.9849E+03
      0.621  0.1262E+03  0.9950E+03
      0.701  0.9763E+02  0.1003E+04
      0.782  0.8531E+02  0.1010E+04
      0.862  0.6360E+02  0.1015E+04
      0.942  0.4115E+02  0.1018E+04
      1.023  0.1966E+02  0.1020E+04
      1.103  0.1067E+02  0.1021E+04
      1.183  0.1528E+02  0.1022E+04
      1.264  0.1932E+02  0.1023E+04
      1.344  0.2637E+02  0.1025E+04
      1.424  0.3159E+02  0.1028E+04
      1.504  0.3364E+02  0.1031E+04
      1.585  0.3289E+02  0.1033E+04
      1.665  0.2168E+02  0.1035E+04
      1.745  0.2862E+02  0.1037E+04
      1.826  0.3707E+02  0.1040E+04
      1.906  0.3285E+02  0.1043E+04
      1.986  0.4291E+02  0.1046E+04
      2.067  0.4102E+02  0.1050E+04
      2.147  0.1628E+02  0.1051E+04
      2.227  0.8948E+01  0.1052E+04
      2.307  0.1067E+02  0.1053E+04
      2.388  0.1218E+02  0.1054E+04
      2.468  0.1758E+02  0.1055E+04
      2.548  0.3037E+02  0.1057E+04
      2.629  0.3344E+02  0.1060E+04
      2.709  0.4091E+02  0.1063E+04
      2.789  0.4358E+02  0.1067E+04
      2.870  0.3674E+02  0.1070E+04
      2.950  0.3029E+02  0.1072E+04
      3.030  0.2999E+02  0.1075E+04
      3.110  0.2593E+02  0.1077E+04
      3.191  0.1199E+02  0.1078E+04
      3.271  0.7217E+01  0.1078E+04
      3.351  0.2010E+02  0.1080E+04
      3.432  0.3960E+02  0.1083E+04
      3.512  0.4340E+02  0.1087E+04
      3.592  0.3635E+02  0.1090E+04
      3.673  0.1905E+02  0.1091E+04
      3.753  0.1608E+02  0.1092E+04
      3.833  0.2199E+02  0.1094E+04
      3.914  0.2731E+02  0.1096E+04
      3.994  0.3205E+02  0.1099E+04
      4.074  0.2908E+02  0.1101E+04
      4.154  0.2678E+02  0.1103E+04
      4.235  0.3014E+02  0.1106E+04
      4.315  0.3877E+02  0.1109E+04
      4.395  0.4058E+02  0.1112E+04
      4.476  0.3160E+02  0.1115E+04
      4.556  0.1745E+02  0.1116E+04
      4.636  0.1408E+02  0.1117E+04
      4.717  0.2653E+02  0.1119E+04
      4.797  0.2521E+02  0.1121E+04
      4.877  0.1735E+02  0.1123E+04
      4.957  0.2269E+02  0.1125E+04
      5.038  0.3296E+02  0.1127E+04
      5.118  0.3542E+02  0.1130E+04
      5.198  0.3011E+02  0.1133E+04
      5.279  0.2962E+02  0.1135E+04
      5.359  0.2796E+02  0.1137E+04
      5.439  0.2715E+02  0.1139E+04
      5.520  0.3359E+02  0.1142E+04
      5.600  0.3743E+02  0.1145E+04
      5.680  0.4142E+02  0.1148E+04
      5.760  0.4231E+02  0.1152E+04
      5.841  0.4225E+02  0.1155E+04
      5.921  0.4200E+02  0.1159E+04
      6.001  0.3358E+02  0.1161E+04
      6.082  0.1804E+02  0.1163E+04
      6.162  0.1922E+02  0.1164E+04
      6.242  0.3283E+02  0.1167E+04
      6.323  0.4676E+02  0.1171E+04
      6.403  0.2993E+02  0.1173E+04
      6.483  0.1553E+02  0.1174E+04
      6.563  0.2425E+02  0.1176E+04
      6.644  0.3033E+02  0.1179E+04
      6.724  0.3009E+02  0.1181E+04
      6.804  0.3114E+02  0.1184E+04
      6.885  0.4574E+02  0.1187E+04
      6.965  0.4832E+02  0.1191E+04
      7.045  0.3831E+02  0.1194E+04
      7.126  0.2850E+02  0.1196E+04
      7.206  0.4389E+02  0.1200E+04
      7.286  0.4144E+02  0.1203E+04
      7.366  0.3049E+02  0.1206E+04
      7.447  0.3546E+02  0.1209E+04
      7.527  0.5029E+02  0.1213E+04
      7.607  0.6342E+02  0.1218E+04
      7.688  0.6289E+02  0.1223E+04
      7.768  0.4982E+02  0.1227E+04
      7.848  0.5771E+02  0.1231E+04
      7.929  0.6266E+02  0.1236E+04
      8.009  0.5038E+02  0.1241E+04
      8.089  0.4404E+02  0.1244E+04
      8.169  0.5590E+02  0.1249E+04
      8.250  0.6054E+02  0.1253E+04
      8.330  0.6009E+02  0.1258E+04
      8.410  0.4749E+02  0.1262E+04
      8.491  0.4393E+02  0.1266E+04
      8.571  0.5974E+02  0.1270E+04
      8.651  0.6939E+02  0.1276E+04
      8.732  0.5991E+02  0.1281E+04
      8.812  0.5348E+02  0.1285E+04
      8.892  0.6015E+02  0.1290E+04
      8.973  0.6058E+02  0.1295E+04
      9.053  0.5157E+02  0.1299E+04
      9.133  0.5246E+02  0.1303E+04
      9.213  0.4425E+02  0.1307E+04
      9.294  0.3444E+02  0.1309E+04
      9.374  0.4203E+02  0.1313E+04
      9.454  0.5474E+02  0.1317E+04
      9.535  0.6391E+02  0.1322E+04
      9.615  0.5347E+02  0.1327E+04
      9.695  0.4353E+02  0.1330E+04
      9.776  0.4640E+02  0.1334E+04
      9.856  0.5713E+02  0.1338E+04
      9.936  0.6255E+02  0.1343E+04
     10.016  0.5484E+02  0.1348E+04
     10.097  0.6514E+02  0.1353E+04
     10.177  0.7274E+02  0.1359E+04
     10.257  0.6446E+02  0.1364E+04
     10.338  0.6405E+02  0.1369E+04
     10.418  0.7554E+02  0.1375E+04
     10.498  0.7020E+02  0.1381E+04
     10.579  0.5706E+02  0.1386E+04
     10.659  0.4914E+02  0.1389E+04
     10.739  0.5374E+02  0.1394E+04
     10.819  0.5905E+02  0.1399E+04
     10.900  0.6116E+02  0.1403E+04
     10.980  0.6588E+02  0.1409E+04
     11.060  0.6841E+02  0.1414E+04
     11.141  0.6913E+02  0.1420E+04
     11.221  0.6786E+02  0.1425E+04
     11.301  0.6544E+02  0.1430E+04
     11.382  0.6203E+02  0.1435E+04
     11.462  0.6268E+02  0.1440E+04
     11.542  0.6359E+02  0.1446E+04
     11.622  0.6280E+02  0.1451E+04
     11.703  0.6459E+02  0.1456E+04
     11.783  0.8071E+02  0.1462E+04
     11.863  0.8081E+02  0.1469E+04
     11.944  0.7182E+02  0.1475E+04
     12.024  0.6481E+02  0.1480E+04
     12.104  0.6990E+02  0.1485E+04
     12.185  0.8439E+02  0.1492E+04
     12.265  0.8238E+02  0.1499E+04
     12.345  0.8251E+02  0.1505E+04
     12.425  0.8557E+02  0.1512E+04
     12.506  0.8472E+02  0.1519E+04
     12.586  0.8425E+02  0.1526E+04
     12.666  0.8229E+02  0.1532E+04
     12.747  0.7987E+02  0.1539E+04
     12.827  0.7665E+02  0.1545E+04
     12.907  0.9397E+02  0.1553E+04
     12.988  0.9625E+02  0.1560E+04
     13.068  0.8130E+02  0.1567E+04
     13.148  0.7888E+02  0.1573E+04
     13.228  0.7808E+02  0.1579E+04
     13.309  0.7914E+02  0.1586E+04
     13.389  0.8234E+02  0.1592E+04
     13.469  0.8004E+02  0.1599E+04
     13.550  0.7626E+02  0.1605E+04
     13.630  0.7352E+02  0.1611E+04
     13.710  0.7871E+02  0.1617E+04
     13.791  0.8491E+02  0.1624E+04
     13.871  0.8482E+02  0.1631E+04
     13.951  0.8074E+02  0.1637E+04
     14.032  0.8176E+02  0.1644E+04
     14.112  0.8867E+02  0.1651E+04
     14.192  0.7047E+02  0.1657E+04
     14.272  0.3538E+02  0.1659E+04
     14.353  0.8048E+01  0.1660E+04
     14.433 -0.7556E+00  0.1660E+04
     14.513 -0.4328E+00  0.1660E+04
     14.594 -0.3208E-01  0.1660E+04
     14.674 -0.6117E-03  0.1660E+04
     14.754 -0.3173E-05  0.1660E+04
     14.835 -0.4511E-08  0.1660E+04
     14.915 -0.1759E-11  0.1660E+04
     14.995  0.0000E+00  0.1660E+04
     15.075  0.0000E+00  0.1660E+04
     15.156  0.0000E+00  0.1660E+04
     15.236  0.0000E+00  0.1660E+04
     15.316  0.0000E+00  0.1660E+04
     15.397  0.0000E+00  0.1660E+04
     15.39663974     -8.69384051  301     -0.04794676      1.00000000
     -8.694  0.0000E+00  0.0000E+00  0.0000E+00
     -8.614  0.0000E+00  0.0000E+00  0.0000E+00
     -8.533  0.0000E+00  0.0000E+00  0.0000E+00
     -8.453 -0.8645E-34 -0.1140E-34 -0.1384E-36
     -8.373 -0.3726E-28 -0.4913E-29 -0.5963E-31
     -8.292 -0.4374E-23 -0.5768E-24 -0.7001E-26
     -8.212 -0.1395E-18 -0.1839E-19 -0.2233E-21
     -8.132 -0.1162E-14 -0.1533E-15 -0.1860E-17
     -8.051 -0.2663E-11 -0.3511E-12 -0.4262E-14
     -7.971 -0.1609E-08 -0.2122E-09 -0.2578E-11
     -7.891 -0.2491E-06 -0.3284E-07 -0.4010E-09
     -7.811 -0.9116E-05 -0.1203E-05 -0.1546E-07
     -7.730 -0.5697E-04 -0.7617E-05 -0.1694E-06
     -7.650  0.1387E-03  0.1622E-04 -0.1307E-05
     -7.570  0.9405E-03  0.1222E-03  0.1825E-06
     -7.489  0.4105E-02  0.5963E-03  0.4724E-04
     -7.409  0.5769E-02  0.8467E-03  0.7210E-04
     -7.329  0.8722E-03  0.1208E-03  0.3670E-05
     -7.248  0.2225E-02  0.4056E-03  0.1034E-03
     -7.168  0.6270E-02  0.1143E-02  0.2984E-03
     -7.088  0.5925E-02  0.1166E-02  0.3775E-03
     -7.008  0.3896E-02  0.7234E-03  0.2341E-03
     -6.927  0.3748E-02  0.3189E-03 -0.4195E-05
     -6.847  0.1610E-01  0.1774E-02  0.3015E-03
     -6.767  0.2325E-01  0.3437E-02  0.1285E-02
     -6.686  0.8463E-02  0.2038E-02  0.1233E-02
     -6.606  0.1169E-01  0.1835E-02  0.6954E-03
     -6.526  0.3816E-01  0.5577E-02  0.2068E-02
     -6.445  0.2437E-01  0.3993E-02  0.1679E-02
     -6.365  0.3009E-02  0.7055E-03  0.2147E-03
     -6.285  0.5259E-02  0.7183E-03  0.9068E-03
     -6.204  0.3236E-01  0.6187E-02  0.5283E-02
     -6.124  0.3753E-01  0.8810E-02  0.7106E-02
     -6.044  0.2085E-01  0.5121E-02  0.5902E-02
     -5.964  0.2869E-01  0.5000E-02  0.7678E-02
     -5.883  0.2789E-01  0.4818E-02  0.6008E-02
     -5.803  0.2751E-01  0.4743E-02  0.1003E-01
     -5.723  0.2519E-01  0.6447E-02  0.2512E-01
     -5.642  0.4454E-01  0.1347E-01  0.4705E-01
     -5.562  0.6875E-01  0.1904E-01  0.6972E-01
     -5.482  0.4638E-01  0.1397E-01  0.7587E-01
     -5.401  0.6293E-01  0.1582E-01  0.1595E+00
     -5.321  0.1017E+00  0.2165E-01  0.2475E+00
     -5.241  0.1077E+00  0.2579E-01  0.2304E+00
     -5.161  0.9074E-01  0.2816E-01  0.2534E+00
     -5.080  0.1132E+00  0.3319E-01  0.3363E+00
     -5.000  0.1438E+00  0.4236E-01  0.4218E+00
     -4.920  0.1374E+00  0.4334E-01  0.4479E+00
     -4.839  0.1329E+00  0.4284E-01  0.4883E+00
     -4.759  0.1486E+00  0.5479E-01  0.7706E+00
     -4.679  0.1896E+00  0.6591E-01  0.1064E+01
     -4.598  0.1891E+00  0.6278E-01  0.1120E+01
     -4.518  0.1763E+00  0.5923E-01  0.1097E+01
     -4.438  0.1551E+00  0.6548E-01  0.1070E+01
     -4.358  0.1746E+00  0.6732E-01  0.1081E+01
     -4.277  0.1674E+00  0.5831E-01  0.9810E+00
     -4.197  0.1333E+00  0.4223E-01  0.7974E+00
     -4.117  0.1013E+00  0.3449E-01  0.7530E+00
     -4.036  0.8809E-01  0.3856E-01  0.8494E+00
     -3.956  0.7230E-01  0.4171E-01  0.9653E+00
     -3.876  0.4430E-01  0.4332E-01  0.1003E+01
     -3.795  0.3100E-01  0.4487E-01  0.1106E+01
     -3.715  0.2634E-01  0.3981E-01  0.1071E+01
     -3.635  0.3019E-01  0.3564E-01  0.1025E+01
     -3.555  0.3488E-01  0.3405E-01  0.1026E+01
     -3.474  0.3070E-01  0.2876E-01  0.1012E+01
     -3.394  0.2520E-01  0.2836E-01  0.1016E+01
     -3.314  0.2262E-01  0.2925E-01  0.9947E+00
     -3.233  0.3336E-01  0.3068E-01  0.1095E+01
     -3.153  0.4770E-01  0.3285E-01  0.1224E+01
     -3.073  0.4126E-01  0.2701E-01  0.1167E+01
     -2.992  0.2935E-01  0.2533E-01  0.1114E+01
     -2.912  0.2522E-01  0.2248E-01  0.1041E+01
     -2.832  0.2549E-01  0.2462E-01  0.1222E+01
     -2.752  0.4081E-01  0.4865E-01  0.1666E+01
     -2.671  0.6002E-01  0.6475E-01  0.1882E+01
     -2.591  0.4979E-01  0.5800E-01  0.1933E+01
     -2.511  0.3196E-01  0.3912E-01  0.1607E+01
     -2.430  0.3447E-01  0.3796E-01  0.1787E+01
     -2.350  0.4878E-01  0.5718E-01  0.2380E+01
     -2.270  0.5457E-01  0.7275E-01  0.2646E+01
     -2.189  0.5974E-01  0.8620E-01  0.2376E+01
     -2.109  0.6574E-01  0.8398E-01  0.1887E+01
     -2.029  0.6902E-01  0.8605E-01  0.1548E+01
     -1.949  0.5610E-01  0.7740E-01  0.1253E+01
     -1.868  0.3658E-01  0.6901E-01  0.1430E+01
     -1.788  0.3606E-01  0.7316E-01  0.1696E+01
     -1.708  0.3683E-01  0.6274E-01  0.1612E+01
     -1.627  0.3713E-01  0.6473E-01  0.1625E+01
     -1.547  0.3817E-01  0.7462E-01  0.1793E+01
     -1.467  0.4259E-01  0.8058E-01  0.1844E+01
     -1.386  0.4385E-01  0.7842E-01  0.1652E+01
     -1.306  0.3441E-01  0.6159E-01  0.1425E+01
     -1.226  0.2733E-01  0.6015E-01  0.1457E+01
     -1.145  0.2459E-01  0.6019E-01  0.1414E+01
     -1.065  0.2697E-01  0.6173E-01  0.1358E+01
     -0.985  0.2966E-01  0.6174E-01  0.1582E+01
     -0.905  0.2913E-01  0.5685E-01  0.1738E+01
     -0.824  0.3014E-01  0.5604E-01  0.1752E+01
     -0.744  0.2853E-01  0.5612E-01  0.1666E+01
     -0.664  0.2602E-01  0.5909E-01  0.1677E+01
     -0.583  0.2623E-01  0.5677E-01  0.1675E+01
     -0.503  0.2443E-01  0.5776E-01  0.1594E+01
     -0.423  0.2861E-01  0.5818E-01  0.1541E+01
     -0.342  0.4043E-01  0.5863E-01  0.1635E+01
     -0.262  0.4378E-01  0.6228E-01  0.1770E+01
     -0.182  0.3800E-01  0.6562E-01  0.1817E+01
     -0.102  0.3093E-01  0.5461E-01  0.1712E+01
     -0.021  0.3259E-01  0.4502E-01  0.1797E+01
      0.059  0.3482E-01  0.4426E-01  0.2089E+01
      0.139  0.3330E-01  0.3967E-01  0.2188E+01
      0.220  0.3184E-01  0.3745E-01  0.2369E+01
      0.300  0.3257E-01  0.3559E-01  0.2030E+01
      0.380  0.2886E-01  0.3188E-01  0.1441E+01
      0.461  0.2510E-01  0.3452E-01  0.1196E+01
      0.541  0.2237E-01  0.3393E-01  0.1149E+01
      0.621  0.2347E-01  0.3040E-01  0.1124E+01
      0.701  0.3139E-01  0.4047E-01  0.9328E+00
      0.782  0.4407E-01  0.6264E-01  0.6731E+00
      0.862  0.4790E-01  0.5919E-01  0.4384E+00
      0.942  0.4566E-01  0.4242E-01  0.3420E+00
      1.023  0.1983E-01  0.2307E-01  0.2068E+00
      1.103  0.2146E-02  0.1858E-01  0.8972E-01
      1.183  0.1565E-01  0.2439E-01  0.1091E+00
      1.264  0.3161E-01  0.2824E-01  0.1276E+00
      1.344  0.3807E-01  0.4606E-01  0.1593E+00
      1.424  0.3263E-01  0.4873E-01  0.1871E+00
      1.504  0.2184E-01  0.3808E-01  0.1949E+00
      1.585  0.2041E-01  0.3199E-01  0.1979E+00
      1.665  0.1508E-01  0.3067E-01  0.1511E+00
      1.745  0.2006E-01  0.5661E-01  0.1866E+00
      1.826  0.3584E-01  0.8337E-01  0.2018E+00
      1.906  0.5113E-01  0.8044E-01  0.1895E+00
      1.986  0.7322E-01  0.1011E+00  0.3091E+00
      2.067  0.6584E-01  0.9717E-01  0.3053E+00
      2.147  0.1942E-01  0.4272E-01  0.9724E-01
      2.227  0.4941E-02  0.2229E-01  0.3222E-01
      2.307  0.7831E-02  0.2023E-01  0.5222E-01
      2.388  0.1152E-01  0.2222E-01  0.8140E-01
      2.468  0.9409E-02  0.3539E-01  0.7602E-01
      2.548  0.1486E-01  0.7452E-01  0.1087E+00
      2.629  0.2559E-01  0.8958E-01  0.1385E+00
      2.709  0.4314E-01  0.1116E+00  0.1877E+00
      2.789  0.4388E-01  0.1085E+00  0.2009E+00
      2.870  0.3499E-01  0.8321E-01  0.1728E+00
      2.950  0.2613E-01  0.7042E-01  0.1421E+00
      3.030  0.3032E-01  0.7054E-01  0.1321E+00
      3.110  0.3266E-01  0.9063E-01  0.9703E-01
      3.191  0.1875E-01  0.5337E-01  0.5032E-01
      3.271  0.9515E-02  0.1165E-01  0.4121E-01
      3.351  0.1326E-01  0.4692E-01  0.8705E-01
      3.432  0.2681E-01  0.1142E+00  0.1602E+00
      3.512  0.3152E-01  0.1404E+00  0.1778E+00
      3.592  0.2649E-01  0.1273E+00  0.1332E+00
      3.673  0.1047E-01  0.6391E-01  0.5539E-01
      3.753  0.6271E-02  0.3195E-01  0.4887E-01
      3.833  0.9557E-02  0.5673E-01  0.6615E-01
      3.914  0.1480E-01  0.9247E-01  0.7539E-01
      3.994  0.2227E-01  0.9556E-01  0.9147E-01
      4.074  0.1789E-01  0.9151E-01  0.8669E-01
      4.154  0.2197E-01  0.9111E-01  0.9505E-01
      4.235  0.2896E-01  0.9740E-01  0.1103E+00
      4.315  0.2552E-01  0.1325E+00  0.1318E+00
      4.395  0.2594E-01  0.1381E+00  0.1484E+00
      4.476  0.1618E-01  0.9691E-01  0.1135E+00
      4.556  0.1351E-01  0.4923E-01  0.6662E-01
      4.636  0.1658E-01  0.3902E-01  0.5048E-01
      4.717  0.1674E-01  0.7453E-01  0.7894E-01
      4.797  0.1280E-01  0.8604E-01  0.8178E-01
      4.877  0.5439E-02  0.6122E-01  0.5220E-01
      4.957  0.7031E-02  0.5648E-01  0.4957E-01
      5.038  0.1287E-01  0.7523E-01  0.7575E-01
      5.118  0.1349E-01  0.8761E-01  0.8696E-01
      5.198  0.9859E-02  0.8359E-01  0.7826E-01
      5.279  0.8314E-02  0.7160E-01  0.6760E-01
      5.359  0.8744E-02  0.4375E-01  0.3993E-01
      5.439  0.1124E-01  0.4917E-01  0.4415E-01
      5.520  0.1433E-01  0.7631E-01  0.7422E-01
      5.600  0.1353E-01  0.7490E-01  0.6607E-01
      5.680  0.1464E-01  0.7903E-01  0.6761E-01
      5.760  0.1928E-01  0.9589E-01  0.8680E-01
      5.841  0.2196E-01  0.9271E-01  0.8166E-01
      5.921  0.1869E-01  0.7432E-01  0.6570E-01
      6.001  0.1130E-01  0.5863E-01  0.5442E-01
      6.082  0.7970E-02  0.4663E-01  0.4212E-01
      6.162  0.7622E-02  0.4640E-01  0.3752E-01
      6.242  0.1306E-01  0.4867E-01  0.4589E-01
      6.323  0.2091E-01  0.6115E-01  0.5476E-01
      6.403  0.1538E-01  0.3625E-01  0.3361E-01
      6.483  0.1144E-01  0.2633E-01  0.2819E-01
      6.563  0.1284E-01  0.3283E-01  0.3262E-01
      6.644  0.1581E-01  0.3323E-01  0.2746E-01
      6.724  0.1771E-01  0.4518E-01  0.3716E-01
      6.804  0.1592E-01  0.6417E-01  0.5316E-01
      6.885  0.2221E-01  0.7136E-01  0.6461E-01
      6.965  0.2308E-01  0.4200E-01  0.4936E-01
      7.045  0.2921E-01  0.3209E-01  0.3877E-01
      7.126  0.5706E-01  0.5753E-01  0.6023E-01
      7.206  0.1311E+00  0.1157E+00  0.1242E+00
      7.286  0.1256E+00  0.1213E+00  0.1306E+00
      7.366  0.4098E-01  0.6848E-01  0.6948E-01
      7.447  0.3452E-01  0.6437E-01  0.6393E-01
      7.527  0.4277E-01  0.7633E-01  0.1001E+00
      7.607  0.4632E-01  0.8707E-01  0.1226E+00
      7.688  0.5404E-01  0.7568E-01  0.1044E+00
      7.768  0.6552E-01  0.7116E-01  0.1040E+00
      7.848  0.7312E-01  0.8923E-01  0.1039E+00
      7.929  0.6773E-01  0.8422E-01  0.9305E-01
      8.009  0.5536E-01  0.5735E-01  0.7309E-01
      8.089  0.5021E-01  0.4389E-01  0.5651E-01
      8.169  0.6437E-01  0.6721E-01  0.8249E-01
      8.250  0.9644E-01  0.8179E-01  0.1110E+00
      8.330  0.1172E+00  0.7844E-01  0.1159E+00
      8.410  0.7247E-01  0.6026E-01  0.8210E-01
      8.491  0.4479E-01  0.6101E-01  0.6486E-01
      8.571  0.5156E-01  0.8333E-01  0.8049E-01
      8.651  0.5617E-01  0.9570E-01  0.9648E-01
      8.732  0.6104E-01  0.8097E-01  0.8299E-01
      8.812  0.5433E-01  0.7780E-01  0.7058E-01
      8.892  0.5953E-01  0.8009E-01  0.8838E-01
      8.973  0.5936E-01  0.6710E-01  0.8829E-01
      9.053  0.5183E-01  0.6723E-01  0.7362E-01
      9.133  0.5556E-01  0.7726E-01  0.6981E-01
      9.213  0.4894E-01  0.6936E-01  0.6315E-01
      9.294  0.3411E-01  0.5388E-01  0.4507E-01
      9.374  0.3433E-01  0.7333E-01  0.6455E-01
      9.454  0.5454E-01  0.7919E-01  0.7819E-01
      9.535  0.7345E-01  0.7419E-01  0.7487E-01
      9.615  0.6274E-01  0.7797E-01  0.6287E-01
      9.695  0.5458E-01  0.7555E-01  0.5389E-01
      9.776  0.6609E-01  0.7070E-01  0.6811E-01
      9.856  0.7585E-01  0.8332E-01  0.8942E-01
      9.936  0.6854E-01  0.8608E-01  0.1002E+00
     10.016  0.6803E-01  0.8352E-01  0.8867E-01
     10.097  0.9252E-01  0.9909E-01  0.9670E-01
     10.177  0.7832E-01  0.9282E-01  0.9528E-01
     10.257  0.5614E-01  0.9014E-01  0.8583E-01
     10.338  0.6643E-01  0.8910E-01  0.9948E-01
     10.418  0.8948E-01  0.9248E-01  0.1202E+00
     10.498  0.8167E-01  0.8896E-01  0.1094E+00
     10.579  0.4734E-01  0.7753E-01  0.9230E-01
     10.659  0.4435E-01  0.6736E-01  0.7354E-01
     10.739  0.5749E-01  0.7082E-01  0.7069E-01
     10.819  0.5225E-01  0.7574E-01  0.6900E-01
     10.900  0.5947E-01  0.8229E-01  0.7595E-01
     10.980  0.8592E-01  0.9594E-01  0.1048E+00
     11.060  0.6539E-01  0.1057E+00  0.1012E+00
     11.141  0.4577E-01  0.9973E-01  0.8066E-01
     11.221  0.5163E-01  0.8213E-01  0.7996E-01
     11.301  0.7197E-01  0.8351E-01  0.8714E-01
     11.382  0.1028E+00  0.8800E-01  0.9031E-01
     11.462  0.9465E-01  0.8127E-01  0.9224E-01
     11.542  0.7095E-01  0.8833E-01  0.8823E-01
     11.622  0.6897E-01  0.9475E-01  0.9801E-01
     11.703  0.6829E-01  0.9933E-01  0.1147E+00
     11.783  0.6077E-01  0.1127E+00  0.1259E+00
     11.863  0.6037E-01  0.1068E+00  0.1142E+00
     11.944  0.6021E-01  0.9775E-01  0.9518E-01
     12.024  0.5045E-01  0.8709E-01  0.8009E-01
     12.104  0.5374E-01  0.1002E+00  0.7821E-01
     12.185  0.7545E-01  0.1312E+00  0.9910E-01
     12.265  0.8107E-01  0.1316E+00  0.1028E+00
     12.345  0.7691E-01  0.1137E+00  0.9868E-01
     12.425  0.7323E-01  0.1164E+00  0.9617E-01
     12.506  0.6825E-01  0.1207E+00  0.9655E-01
     12.586  0.7864E-01  0.1181E+00  0.9921E-01
     12.666  0.7837E-01  0.1206E+00  0.1028E+00
     12.747  0.7477E-01  0.1232E+00  0.1111E+00
     12.827  0.5437E-01  0.1200E+00  0.1051E+00
     12.907  0.5299E-01  0.1484E+00  0.1263E+00
     12.988  0.6242E-01  0.1434E+00  0.1335E+00
     13.068  0.5333E-01  0.1138E+00  0.1002E+00
     13.148  0.5229E-01  0.1064E+00  0.9440E-01
     13.228  0.5732E-01  0.1169E+00  0.9813E-01
     13.309  0.4914E-01  0.1227E+00  0.9678E-01
     13.389  0.5666E-01  0.1173E+00  0.1029E+00
     13.469  0.6145E-01  0.1165E+00  0.9935E-01
     13.550  0.6287E-01  0.1258E+00  0.9680E-01
     13.630  0.5698E-01  0.1412E+00  0.1038E+00
     13.710  0.5665E-01  0.1428E+00  0.1162E+00
     13.791  0.6171E-01  0.1469E+00  0.1127E+00
     13.871  0.5536E-01  0.1487E+00  0.1113E+00
     13.951  0.4739E-01  0.1436E+00  0.1156E+00
     14.032  0.4488E-01  0.1412E+00  0.9820E-01
     14.112  0.3836E-01  0.1572E+00  0.9419E-01
     14.192  0.3331E-01  0.1267E+00  0.7657E-01
     14.272  0.1956E-01  0.6683E-01  0.3766E-01
     14.353  0.3377E-02  0.1806E-01  0.8967E-02
     14.433 -0.6371E-03 -0.1059E-02 -0.6317E-03
     14.513 -0.1802E-03 -0.9271E-03 -0.4892E-03
     14.594 -0.1042E-04 -0.7237E-04 -0.3876E-04
     14.674 -0.1710E-06 -0.1403E-05 -0.7693E-06
     14.754 -0.7934E-09 -0.7322E-08 -0.4133E-08
     14.835 -0.1022E-11 -0.1043E-10 -0.6084E-11
     14.915 -0.3616E-15 -0.4065E-14 -0.2456E-14
     14.995  0.0000E+00  0.0000E+00  0.0000E+00
     15.075  0.0000E+00  0.0000E+00  0.0000E+00
     15.156  0.0000E+00  0.0000E+00  0.0000E+00
     15.236  0.0000E+00  0.0000E+00  0.0000E+00
     15.316  0.0000E+00  0.0000E+00  0.0000E+00
     15.397  0.0000E+00  0.0000E+00  0.0000E+00
     15.39663974     -8.69384051  301     -0.04794676      1.00000000
     -8.694  0.0000E+00  0.0000E+00  0.0000E+00
     -8.614  0.0000E+00  0.0000E+00  0.0000E+00
     -8.533  0.0000E+00  0.0000E+00  0.0000E+00
     -8.453 -0.8550E-34 -0.1126E-34 -0.1425E-36
     -8.373 -0.3685E-28 -0.4853E-29 -0.6143E-31
     -8.292 -0.4326E-23 -0.5697E-24 -0.7211E-26
     -8.212 -0.1380E-18 -0.1817E-19 -0.2300E-21
     -8.132 -0.1150E-14 -0.1514E-15 -0.1916E-17
     -8.051 -0.2633E-11 -0.3468E-12 -0.4390E-14
     -7.971 -0.1592E-08 -0.2096E-09 -0.2655E-11
     -7.891 -0.2463E-06 -0.3244E-07 -0.4130E-09
     -7.811 -0.9015E-05 -0.1188E-05 -0.1590E-07
     -7.730 -0.5630E-04 -0.7521E-05 -0.1726E-06
     -7.650  0.1379E-03  0.1608E-04 -0.1310E-05
     -7.570  0.9307E-03  0.1208E-03  0.2196E-06
     -7.489  0.4042E-02  0.5874E-03  0.4768E-04
     -7.409  0.5678E-02  0.8339E-03  0.7273E-04
     -7.329  0.8626E-03  0.1193E-03  0.3557E-05
     -7.248  0.2151E-02  0.3957E-03  0.1046E-03
     -7.168  0.6052E-02  0.1116E-02  0.3062E-03
     -7.088  0.5647E-02  0.1132E-02  0.3831E-03
     -7.008  0.3714E-02  0.6954E-03  0.2248E-03
     -6.927  0.3661E-02  0.3066E-03 -0.1158E-04
     -6.847  0.1521E-01  0.1669E-02  0.2922E-03
     -6.767  0.2075E-01  0.3142E-02  0.1280E-02
     -6.686  0.5689E-02  0.1719E-02  0.1221E-02
     -6.606  0.1127E-01  0.1771E-02  0.6389E-03
     -6.526  0.4010E-01  0.5640E-02  0.1839E-02
     -6.445  0.2549E-01  0.3965E-02  0.1487E-02
     -6.365  0.2348E-02  0.6264E-03  0.2052E-03
     -6.285  0.4704E-02  0.5949E-03  0.8290E-03
     -6.204  0.3174E-01  0.5853E-02  0.4682E-02
     -6.124  0.3893E-01  0.8820E-02  0.6473E-02
     -6.044  0.2056E-01  0.5185E-02  0.5355E-02
     -5.964  0.3009E-01  0.4955E-02  0.6339E-02
     -5.883  0.3277E-01  0.4968E-02  0.5641E-02
     -5.803  0.2865E-01  0.4568E-02  0.1291E-01
     -5.723  0.3247E-01  0.6533E-02  0.2899E-01
     -5.642  0.6068E-01  0.1447E-01  0.4722E-01
     -5.562  0.7349E-01  0.2034E-01  0.7200E-01
     -5.482  0.5038E-01  0.1591E-01  0.8497E-01
     -5.401  0.6921E-01  0.1758E-01  0.1765E+00
     -5.321  0.9840E-01  0.2329E-01  0.2776E+00
     -5.241  0.1056E+00  0.2667E-01  0.2544E+00
     -5.161  0.1019E+00  0.2928E-01  0.2694E+00
     -5.080  0.1255E+00  0.3430E-01  0.3695E+00
     -5.000  0.1378E+00  0.4204E-01  0.4543E+00
     -4.920  0.1312E+00  0.4594E-01  0.5008E+00
     -4.839  0.1310E+00  0.4921E-01  0.5262E+00
     -4.759  0.1694E+00  0.6040E-01  0.7466E+00
     -4.679  0.2154E+00  0.6774E-01  0.1045E+01
     -4.598  0.2035E+00  0.6336E-01  0.1095E+01
     -4.518  0.1763E+00  0.6294E-01  0.1130E+01
     -4.438  0.1523E+00  0.6723E-01  0.1143E+01
     -4.358  0.1322E+00  0.6103E-01  0.1039E+01
     -4.277  0.1401E+00  0.5269E-01  0.9189E+00
     -4.197  0.1198E+00  0.4186E-01  0.8045E+00
     -4.117  0.8345E-01  0.3635E-01  0.8121E+00
     -4.036  0.7288E-01  0.4053E-01  0.8412E+00
     -3.956  0.7525E-01  0.4214E-01  0.8664E+00
     -3.876  0.5555E-01  0.4367E-01  0.8913E+00
     -3.795  0.3621E-01  0.4260E-01  0.9869E+00
     -3.715  0.3075E-01  0.3894E-01  0.1043E+01
     -3.635  0.2709E-01  0.3411E-01  0.9969E+00
     -3.555  0.2672E-01  0.3452E-01  0.1021E+01
     -3.474  0.2915E-01  0.3091E-01  0.1083E+01
     -3.394  0.2538E-01  0.2496E-01  0.1057E+01
     -3.314  0.2182E-01  0.2503E-01  0.9787E+00
     -3.233  0.3116E-01  0.3016E-01  0.1040E+01
     -3.153  0.4743E-01  0.3245E-01  0.1218E+01
     -3.073  0.4211E-01  0.2741E-01  0.1248E+01
     -2.992  0.3062E-01  0.2606E-01  0.1193E+01
     -2.912  0.2509E-01  0.2300E-01  0.1043E+01
     -2.832  0.2425E-01  0.2558E-01  0.1201E+01
     -2.752  0.4029E-01  0.4912E-01  0.1661E+01
     -2.671  0.5982E-01  0.6533E-01  0.1910E+01
     -2.591  0.4947E-01  0.5827E-01  0.1881E+01
     -2.511  0.3175E-01  0.3874E-01  0.1555E+01
     -2.430  0.3223E-01  0.3861E-01  0.1787E+01
     -2.350  0.4532E-01  0.5785E-01  0.2305E+01
     -2.270  0.5603E-01  0.7269E-01  0.2514E+01
     -2.189  0.6510E-01  0.8623E-01  0.2358E+01
     -2.109  0.6572E-01  0.8440E-01  0.2016E+01
     -2.029  0.6694E-01  0.8488E-01  0.1659E+01
     -1.949  0.5217E-01  0.7620E-01  0.1364E+01
     -1.868  0.3661E-01  0.6859E-01  0.1551E+01
     -1.788  0.4238E-01  0.7068E-01  0.1741E+01
     -1.708  0.3997E-01  0.6287E-01  0.1586E+01
     -1.627  0.3553E-01  0.6305E-01  0.1527E+01
     -1.547  0.3768E-01  0.7476E-01  0.1685E+01