  96  96   1   0
  0.3504810E+02  0.1113219E-08  0.1111909E-08  0.3136685E-08  0.0000000E+00
  1.000000000000000E-004
  CAR 
 unknown system                          
     15.99433109    -10.79866936  301      0.45012243      1.00000000
    -10.799  0.0000E+00  0.0000E+00
    -10.709  0.0000E+00  0.0000E+00
    -10.620  0.0000E+00  0.0000E+00
    -10.531  0.0000E+00  0.0000E+00
    -10.441 -0.2313E-31 -0.2066E-32
    -10.352 -0.4430E-25 -0.3956E-26
    -10.263 -0.1698E-19 -0.1516E-20
    -10.173 -0.1297E-14 -0.1159E-15
    -10.084 -0.1889E-10 -0.1687E-11
     -9.995 -0.5517E-07 -0.4929E-08
     -9.906 -0.3057E-04 -0.2735E-05
     -9.816 -0.3004E-02 -0.2711E-03
     -9.727 -0.3981E-01 -0.3827E-02
     -9.638  0.9784E-01  0.4912E-02
     -9.548  0.7528E+00  0.7214E-01
     -9.459  0.3661E+01  0.3991E+00
     -9.370  0.4997E+01  0.8454E+00
     -9.280  0.2339E+00  0.8663E+00
     -9.191  0.2743E+01  0.1111E+01
     -9.102  0.6112E+01  0.1657E+01
     -9.012  0.5881E+01  0.2182E+01
     -8.923  0.2368E+01  0.2394E+01
     -8.834 -0.1217E+00  0.2383E+01
     -8.745  0.2167E+01  0.2577E+01
     -8.655  0.1448E+02  0.3870E+01
     -8.566  0.9813E+01  0.4746E+01
     -8.477  0.2141E+01  0.4937E+01
     -8.387  0.1131E+02  0.5947E+01
     -8.298  0.8399E+01  0.6697E+01
     -8.209  0.3157E+01  0.6979E+01
     -8.119  0.4355E+00  0.7018E+01
     -8.030  0.7881E+01  0.7722E+01
     -7.941  0.2147E+02  0.9639E+01
     -7.851  0.1285E+02  0.1079E+02
     -7.762  0.5305E+01  0.1126E+02
     -7.673  0.1588E+02  0.1268E+02
     -7.584  0.5280E+01  0.1315E+02
     -7.494  0.4937E+00  0.1319E+02
     -7.405  0.1241E+02  0.1430E+02
     -7.316  0.3311E+02  0.1726E+02
     -7.226  0.2624E+02  0.1960E+02
     -7.137  0.6915E+01  0.2022E+02
     -7.048  0.1342E+02  0.2142E+02
     -6.958  0.1831E+02  0.2306E+02
     -6.869  0.9384E+01  0.2389E+02
     -6.780  0.3573E+02  0.2708E+02
     -6.690  0.6214E+02  0.3263E+02
     -6.601  0.5462E+02  0.3751E+02
     -6.512  0.3658E+02  0.4078E+02
     -6.422  0.4714E+02  0.4499E+02
     -6.333  0.7498E+02  0.5169E+02
     -6.244  0.7738E+02  0.5860E+02
     -6.155  0.8046E+02  0.6578E+02
     -6.065  0.9537E+02  0.7430E+02
     -5.976  0.9535E+02  0.8282E+02
     -5.887  0.1059E+03  0.9228E+02
     -5.797  0.1223E+03  0.1032E+03
     -5.708  0.1143E+03  0.1134E+03
     -5.619  0.9129E+02  0.1216E+03
     -5.529  0.7663E+02  0.1284E+03
     -5.440  0.1182E+03  0.1390E+03
     -5.351  0.1583E+03  0.1531E+03
     -5.261  0.1462E+03  0.1662E+03
     -5.172  0.1264E+03  0.1775E+03
     -5.083  0.1274E+03  0.1888E+03
     -4.994  0.1074E+03  0.1984E+03
     -4.904  0.1038E+03  0.2077E+03
     -4.815  0.9564E+02  0.2162E+03
     -4.726  0.7134E+02  0.2226E+03
     -4.636  0.6475E+02  0.2284E+03
     -4.547  0.1065E+03  0.2379E+03
     -4.458  0.1291E+03  0.2494E+03
     -4.368  0.1003E+03  0.2584E+03
     -4.279  0.1051E+03  0.2678E+03
     -4.190  0.1135E+03  0.2779E+03
     -4.100  0.1360E+03  0.2901E+03
     -4.011  0.1334E+03  0.3020E+03
     -3.922  0.1080E+03  0.3116E+03
     -3.832  0.1365E+03  0.3238E+03
     -3.743  0.1348E+03  0.3358E+03
     -3.654  0.1162E+03  0.3462E+03
     -3.565  0.1231E+03  0.3572E+03
     -3.475  0.1367E+03  0.3694E+03
     -3.386  0.1271E+03  0.3808E+03
     -3.297  0.1414E+03  0.3934E+03
     -3.207  0.1766E+03  0.4092E+03
     -3.118  0.1920E+03  0.4263E+03
     -3.029  0.1894E+03  0.4432E+03
     -2.939  0.1802E+03  0.4593E+03
     -2.850  0.1719E+03  0.4747E+03
     -2.761  0.1789E+03  0.4907E+03
     -2.671  0.1839E+03  0.5071E+03
     -2.582  0.1596E+03  0.5213E+03
     -2.493  0.1554E+03  0.5352E+03
     -2.404  0.1700E+03  0.5504E+03
     -2.314  0.1761E+03  0.5661E+03
     -2.225  0.1643E+03  0.5808E+03
     -2.136  0.1253E+03  0.5920E+03
     -2.046  0.9638E+02  0.6006E+03
     -1.957  0.9796E+02  0.6094E+03
     -1.868  0.1036E+03  0.6186E+03
     -1.778  0.1285E+03  0.6301E+03
     -1.689  0.1527E+03  0.6437E+03
     -1.600  0.1634E+03  0.6583E+03
     -1.510  0.1563E+03  0.6723E+03
     -1.421  0.1381E+03  0.6846E+03
     -1.332  0.1052E+03  0.6940E+03
     -1.242  0.9377E+02  0.7024E+03
     -1.153  0.1050E+03  0.7117E+03
     -1.064  0.1209E+03  0.7225E+03
     -0.975  0.1275E+03  0.7339E+03
     -0.885  0.1342E+03  0.7459E+03
     -0.796  0.1494E+03  0.7593E+03
     -0.707  0.1416E+03  0.7719E+03
     -0.617  0.1340E+03  0.7839E+03
     -0.528  0.1351E+03  0.7959E+03
     -0.439  0.1198E+03  0.8066E+03
     -0.349  0.1109E+03  0.8165E+03
     -0.260  0.1048E+03  0.8259E+03
     -0.171  0.1259E+03  0.8371E+03
     -0.081  0.1436E+03  0.8500E+03
      0.008  0.1411E+03  0.8626E+03
      0.097  0.1288E+03  0.8741E+03
      0.186  0.1190E+03  0.8847E+03
      0.276  0.1200E+03  0.8954E+03
      0.365  0.1364E+03  0.9076E+03
      0.454  0.1581E+03  0.9217E+03
      0.544  0.1741E+03  0.9373E+03
      0.633  0.1793E+03  0.9533E+03
      0.722  0.1729E+03  0.9687E+03
      0.812  0.1499E+03  0.9821E+03
      0.901  0.1336E+03  0.9940E+03
      0.990  0.1084E+03  0.1004E+04
      1.080  0.7556E+02  0.1010E+04
      1.169  0.6714E+02  0.1016E+04
      1.258  0.5988E+02  0.1022E+04
      1.347  0.3159E+02  0.1025E+04
      1.437  0.2837E+02  0.1027E+04
      1.526  0.3669E+02  0.1030E+04
      1.615  0.4497E+02  0.1034E+04
      1.705  0.5128E+02  0.1039E+04
      1.794  0.4569E+02  0.1043E+04
      1.883  0.3089E+02  0.1046E+04
      1.973  0.3128E+02  0.1049E+04
      2.062  0.2105E+02  0.1051E+04
      2.151  0.1104E+02  0.1052E+04
      2.241  0.1261E+02  0.1053E+04
      2.330  0.2177E+02  0.1055E+04
      2.419  0.2343E+02  0.1057E+04
      2.509  0.2408E+02  0.1059E+04
      2.598  0.4578E+02  0.1063E+04
      2.687  0.4469E+02  0.1067E+04
      2.776  0.4238E+02  0.1071E+04
      2.866  0.3013E+02  0.1073E+04
      2.955  0.2576E+02  0.1076E+04
      3.044  0.2352E+02  0.1078E+04
      3.134  0.2599E+02  0.1080E+04
      3.223  0.3654E+02  0.1083E+04
      3.312  0.2425E+02  0.1086E+04
      3.402  0.1421E+02  0.1087E+04
      3.491  0.2870E+02  0.1089E+04
      3.580  0.3721E+02  0.1093E+04
      3.670  0.1905E+02  0.1094E+04
      3.759  0.2251E+02  0.1096E+04
      3.848  0.2170E+02  0.1098E+04
      3.937  0.3555E+02  0.1102E+04
      4.027  0.4956E+02  0.1106E+04
      4.116  0.4819E+02  0.1110E+04
      4.205  0.3600E+02  0.1113E+04
      4.295  0.1281E+02  0.1115E+04
      4.384  0.8729E+01  0.1115E+04
      4.473  0.2403E+02  0.1118E+04
      4.563  0.2447E+02  0.1120E+04
      4.652  0.2441E+02  0.1122E+04
      4.741  0.2975E+02  0.1125E+04
      4.831  0.3191E+02  0.1127E+04
      4.920  0.4246E+02  0.1131E+04
      5.009  0.1702E+02  0.1133E+04
      5.099  0.3125E+01  0.1133E+04
      5.188  0.1456E+02  0.1134E+04
      5.277  0.2592E+02  0.1137E+04
      5.366  0.3037E+02  0.1139E+04
      5.456  0.1533E+02  0.1141E+04
      5.545  0.1278E+02  0.1142E+04
      5.634  0.4187E+02  0.1146E+04
      5.724  0.3903E+02  0.1149E+04
      5.813  0.2802E+02  0.1152E+04
      5.902  0.3030E+02  0.1154E+04
      5.992  0.3404E+02  0.1157E+04
      6.081  0.2532E+02  0.1160E+04
      6.170  0.2159E+02  0.1162E+04
      6.260  0.2233E+02  0.1164E+04
      6.349  0.2201E+02  0.1165E+04
      6.438  0.3400E+02  0.1169E+04
      6.527  0.4829E+02  0.1173E+04
      6.617  0.6015E+02  0.1178E+04
      6.706  0.5881E+02  0.1183E+04
      6.795  0.7783E+02  0.1190E+04
      6.885  0.8822E+02  0.1198E+04
      6.974  0.5108E+02  0.1203E+04
      7.063  0.2464E+02  0.1205E+04
      7.153  0.4462E+02  0.1209E+04
      7.242  0.6462E+02  0.1215E+04
      7.331  0.6275E+02  0.1220E+04
      7.421  0.4700E+02  0.1225E+04
      7.510  0.3179E+02  0.1227E+04
      7.599  0.3237E+02  0.1230E+04
      7.689  0.4376E+02  0.1234E+04
      7.778  0.4958E+02  0.1239E+04
      7.867  0.4890E+02  0.1243E+04
      7.956  0.5689E+02  0.1248E+04
      8.046  0.6942E+02  0.1254E+04
      8.135  0.5605E+02  0.1259E+04
      8.224  0.4285E+02  0.1263E+04
      8.314  0.4023E+02  0.1267E+04
      8.403  0.3648E+02  0.1270E+04
      8.492  0.5022E+02  0.1274E+04
      8.582  0.6831E+02  0.1281E+04
      8.671  0.6626E+02  0.1286E+04
      8.760  0.6485E+02  0.1292E+04
      8.850  0.6519E+02  0.1298E+04
      8.939  0.5717E+02  0.1303E+04
      9.028  0.4380E+02  0.1307E+04
      9.117  0.5034E+02  0.1312E+04
      9.207  0.6801E+02  0.1318E+04
      9.296  0.5444E+02  0.1323E+04
      9.385  0.5819E+02  0.1328E+04
      9.475  0.3927E+02  0.1331E+04
      9.564  0.1534E+02  0.1333E+04
      9.653  0.5362E+02  0.1337E+04
      9.743  0.8526E+02  0.1345E+04
      9.832  0.6865E+02  0.1351E+04
      9.921  0.5078E+02  0.1356E+04
     10.011  0.5445E+02  0.1361E+04
     10.100  0.5088E+02  0.1365E+04
     10.189  0.4399E+02  0.1369E+04
     10.278  0.6240E+02  0.1375E+04
     10.368  0.5869E+02  0.1380E+04
     10.457  0.6271E+02  0.1385E+04
     10.546  0.7094E+02  0.1392E+04
     10.636  0.5998E+02  0.1397E+04
     10.725  0.7278E+02  0.1404E+04
     10.814  0.6863E+02  0.1410E+04
     10.904  0.5643E+02  0.1415E+04
     10.993  0.4971E+02  0.1419E+04
     11.082  0.6449E+02  0.1425E+04
     11.172  0.8387E+02  0.1433E+04
     11.261  0.8114E+02  0.1440E+04
     11.350  0.5190E+02  0.1444E+04
     11.440  0.5343E+02  0.1449E+04
     11.529  0.6503E+02  0.1455E+04
     11.618  0.6585E+02  0.1461E+04
     11.707  0.8587E+02  0.1469E+04
     11.797  0.7741E+02  0.1475E+04
     11.886  0.4846E+02  0.1480E+04
     11.975  0.6072E+02  0.1485E+04
     12.065  0.6482E+02  0.1491E+04
     12.154  0.6502E+02  0.1497E+04
     12.243  0.7392E+02  0.1503E+04
     12.333  0.5976E+02  0.1509E+04
     12.422  0.6665E+02  0.1515E+04
     12.511  0.9117E+02  0.1523E+04
     12.601  0.1086E+03  0.1533E+04
     12.690  0.7653E+02  0.1539E+04
     12.779  0.6346E+02  0.1545E+04
     12.868  0.1027E+03  0.1554E+04
     12.958  0.1227E+03  0.1565E+04
     13.047  0.1003E+03  0.1574E+04
     13.136  0.7840E+02  0.1581E+04
     13.226  0.9201E+02  0.1589E+04
     13.315  0.7073E+02  0.1596E+04
     13.404  0.2423E+02  0.1598E+04
     13.494  0.4071E+02  0.1601E+04
     13.583  0.7883E+02  0.1608E+04
     13.672  0.9187E+02  0.1617E+04
     13.762  0.8439E+02  0.1624E+04
     13.851  0.9228E+02  0.1632E+04
     13.940  0.7211E+02  0.1639E+04
     14.030  0.5569E+02  0.1644E+04
     14.119  0.8204E+02  0.1651E+04
     14.208  0.1061E+03  0.1661E+04
     14.297  0.1145E+03  0.1671E+04
     14.387  0.1047E+03  0.1680E+04
     14.476  0.7540E+02  0.1687E+04
     14.565  0.7994E+02  0.1694E+04
     14.655  0.4855E+02  0.1698E+04
     14.744  0.1384E+02  0.1700E+04
     14.833  0.3540E+01  0.1700E+04
     14.923 -0.1482E+00  0.1700E+04
     15.012 -0.1498E+00  0.1700E+04
     15.101 -0.6549E-02  0.1700E+04
     15.191 -0.5013E-04  0.1700E+04
     15.280 -0.7568E-07  0.1700E+04
     15.369 -0.2312E-10  0.1700E+04
     15.458 -0.1243E-14  0.1700E+04
     15.548  0.0000E+00  0.1700E+04
     15.637  0.0000E+00  0.1700E+04
     15.726  0.0000E+00  0.1700E+04
     15.816  0.0000E+00  0.1700E+04
     15.905  0.0000E+00  0.1700E+04
     15.994  0.0000E+00  0.1700E+04
     15.99433109    -10.79866936  301      0.45012243      1.00000000
    -10.799  0.0000E+00  0.0000E+00  0.0000E+00
    -10.709  0.0000E+00  0.0000E+00  0.0000E+00
    -10.620  0.0000E+00  0.0000E+00  0.0000E+00
    -10.531  0.0000E+00  0.0000E+00  0.0000E+00
    -10.441 -0.2454E-34 -0.2901E-35 -0.2294E-37
    -10.352 -0.4700E-28 -0.5556E-29 -0.4394E-31
    -10.263 -0.1801E-22 -0.2129E-23 -0.1684E-25
    -10.173 -0.1377E-17 -0.1627E-18 -0.1287E-20
    -10.084 -0.2005E-13 -0.2370E-14 -0.1874E-16
     -9.995 -0.5853E-10 -0.6919E-11 -0.5472E-13
     -9.906 -0.3244E-07 -0.3835E-08 -0.3036E-10
     -9.816 -0.3187E-05 -0.3769E-06 -0.3030E-08
     -9.727 -0.4220E-04 -0.5010E-05 -0.5244E-07
     -9.638  0.1055E-03  0.1157E-04 -0.4525E-06
     -9.548  0.8025E-03  0.9277E-04 -0.5419E-06
     -9.459  0.3813E-02  0.4895E-03  0.2736E-04
     -9.370  0.5195E-02  0.6722E-03  0.4029E-04
     -9.280  0.2546E-03  0.2805E-04 -0.1793E-05
     -9.191  0.2710E-02  0.4162E-03  0.7077E-04
     -9.102  0.5980E-02  0.9249E-03  0.1624E-03
     -9.012  0.5613E-02  0.9254E-03  0.2073E-03
     -8.923  0.2200E-02  0.3790E-03  0.9433E-04
     -8.834  0.1149E-02  0.3534E-04 -0.2545E-04
     -8.745  0.8018E-02  0.7290E-03  0.6112E-04
     -8.655  0.3024E-01  0.3659E-02  0.8247E-03
     -8.566  0.1444E-01  0.2090E-02  0.6584E-03
     -8.477  0.4879E-02  0.6846E-03  0.1950E-03
     -8.387  0.2986E-01  0.3894E-02  0.9466E-03
     -8.298  0.2704E-01  0.3473E-02  0.7690E-03
     -8.209  0.1377E-01  0.1689E-02  0.3194E-03
     -8.119  0.1220E-04  0.4606E-04  0.4480E-04
     -8.030  0.8184E-02  0.1847E-02  0.1239E-02
     -7.941  0.4186E-01  0.7640E-02  0.3916E-02
     -7.851  0.3740E-01  0.5905E-02  0.2601E-02
     -7.762  0.2457E-01  0.2506E-02  0.1740E-02
     -7.673  0.6094E-01  0.6339E-02  0.4959E-02
     -7.584  0.1774E-01  0.1711E-02  0.1591E-02
     -7.494  0.8878E-02  0.3377E-03  0.1567E-03
     -7.405  0.5811E-01  0.6554E-02  0.4766E-02
     -7.316  0.9663E-01  0.1561E-01  0.1318E-01
     -7.226  0.5829E-01  0.1087E-01  0.1064E-01
     -7.137  0.9348E-02  0.2578E-02  0.3838E-02
     -7.048  0.4022E-01  0.5874E-02  0.7576E-02
     -6.958  0.8470E-01  0.8996E-02  0.9268E-02
     -6.869  0.4356E-01  0.4736E-02  0.4520E-02
     -6.780  0.8166E-01  0.1649E-01  0.2528E-01
     -6.690  0.9630E-01  0.2078E-01  0.5156E-01
     -6.601  0.7150E-01  0.1021E-01  0.6110E-01
     -6.512  0.1251E+00  0.1083E-01  0.7975E-01
     -6.422  0.1099E+00  0.1892E-01  0.5699E-01
     -6.333  0.8618E-01  0.1946E-01  0.7690E-01
     -6.244  0.1536E+00  0.2626E-01  0.1382E+00
     -6.155  0.1496E+00  0.3111E-01  0.1646E+00
     -6.065  0.1252E+00  0.3212E-01  0.1659E+00
     -5.976  0.6670E-01  0.2393E-01  0.1471E+00
     -5.887  0.9571E-01  0.3125E-01  0.2188E+00
     -5.797  0.2302E+00  0.4572E-01  0.3095E+00
     -5.708  0.1823E+00  0.4235E-01  0.2714E+00
     -5.619  0.1057E+00  0.3380E-01  0.2204E+00
     -5.529  0.7492E-01  0.2105E-01  0.2241E+00
     -5.440  0.1695E+00  0.3809E-01  0.6180E+00
     -5.351  0.3402E+00  0.6478E-01  0.1051E+01
     -5.261  0.2869E+00  0.6160E-01  0.9113E+00
     -5.172  0.1785E+00  0.5326E-01  0.7807E+00
     -5.083  0.1915E+00  0.6186E-01  0.9286E+00
     -4.994  0.1324E+00  0.4835E-01  0.6923E+00
     -4.904  0.8331E-01  0.3946E-01  0.6600E+00
     -4.815  0.6309E-01  0.3537E-01  0.5036E+00
     -4.726  0.3246E-01  0.2162E-01  0.3280E+00
     -4.636  0.1968E-01  0.1977E-01  0.3727E+00
     -4.547  0.4074E-01  0.4861E-01  0.8992E+00
     -4.458  0.3859E-01  0.5420E-01  0.1018E+01
     -4.368  0.2046E-01  0.4146E-01  0.7851E+00
     -4.279  0.1191E-01  0.4750E-01  0.8725E+00
     -4.190  0.1750E-01  0.4686E-01  0.8609E+00
     -4.100  0.3552E-01  0.4689E-01  0.9827E+00
     -4.011  0.3464E-01  0.3857E-01  0.9066E+00
     -3.922  0.1988E-01  0.2595E-01  0.7289E+00
     -3.832  0.2516E-01  0.3510E-01  0.1001E+01
     -3.743  0.3858E-01  0.3819E-01  0.9828E+00
     -3.654  0.3797E-01  0.3090E-01  0.8063E+00
     -3.565  0.2610E-01  0.2155E-01  0.7592E+00
     -3.475  0.2534E-01  0.2534E-01  0.8390E+00
     -3.386  0.2513E-01  0.2626E-01  0.8457E+00
     -3.297  0.3455E-01  0.3184E-01  0.1046E+01
     -3.207  0.4734E-01  0.4480E-01  0.1447E+01
     -3.118  0.4647E-01  0.5149E-01  0.1625E+01
     -3.029  0.4590E-01  0.4994E-01  0.1645E+01
     -2.939  0.3506E-01  0.4440E-01  0.1688E+01
     -2.850  0.4245E-01  0.5936E-01  0.1728E+01
     -2.761  0.6383E-01  0.8630E-01  0.1751E+01
     -2.671  0.6786E-01  0.6997E-01  0.1954E+01
     -2.582  0.5697E-01  0.5447E-01  0.2233E+01
     -2.493  0.5450E-01  0.6596E-01  0.2504E+01
     -2.404  0.6379E-01  0.5971E-01  0.2062E+01
     -2.314  0.6712E-01  0.6135E-01  0.1776E+01
     -2.225  0.6365E-01  0.8198E-01  0.1714E+01
     -2.136  0.3915E-01  0.7417E-01  0.1300E+01
     -2.046  0.2651E-01  0.4731E-01  0.9684E+00
     -1.957  0.4418E-01  0.7740E-01  0.1387E+01
     -1.868  0.6253E-01  0.9082E-01  0.1410E+01
     -1.778  0.7069E-01  0.8950E-01  0.1536E+01
     -1.689  0.5926E-01  0.6916E-01  0.1895E+01
     -1.600  0.4646E-01  0.5916E-01  0.1951E+01
     -1.510  0.4153E-01  0.8098E-01  0.1763E+01
     -1.421  0.2691E-01  0.7552E-01  0.1317E+01
     -1.332  0.1452E-01  0.3465E-01  0.9625E+00
     -1.242  0.1898E-01  0.2011E-01  0.1015E+01
     -1.153  0.3052E-01  0.3744E-01  0.1316E+01
     -1.064  0.3644E-01  0.5951E-01  0.1558E+01
     -0.975  0.3362E-01  0.6634E-01  0.1521E+01
     -0.885  0.3712E-01  0.8397E-01  0.1591E+01
     -0.796  0.4317E-01  0.9960E-01  0.1913E+01
     -0.707  0.3424E-01  0.7037E-01  0.1721E+01
     -0.617  0.3233E-01  0.5487E-01  0.1525E+01
     -0.528  0.2951E-01  0.5070E-01  0.1496E+01
     -0.439  0.2164E-01  0.3930E-01  0.1218E+01
     -0.349  0.2124E-01  0.3426E-01  0.1053E+01
     -0.260  0.1916E-01  0.4206E-01  0.1052E+01
     -0.171  0.2156E-01  0.6442E-01  0.1464E+01
     -0.081  0.2272E-01  0.7010E-01  0.1594E+01
      0.008  0.2166E-01  0.5316E-01  0.1320E+01
      0.097  0.1753E-01  0.4063E-01  0.1151E+01
      0.186  0.2190E-01  0.4551E-01  0.1061E+01
      0.276  0.3388E-01  0.5932E-01  0.1118E+01
      0.365  0.3580E-01  0.5805E-01  0.1148E+01
      0.454  0.3856E-01  0.5747E-01  0.1297E+01
      0.544  0.3951E-01  0.6363E-01  0.1418E+01
      0.633  0.3212E-01  0.5521E-01  0.1315E+01
      0.722  0.2569E-01  0.4167E-01  0.1146E+01
      0.812  0.2934E-01  0.3824E-01  0.9954E+00
      0.901  0.3276E-01  0.3555E-01  0.9287E+00
      0.990  0.2411E-01  0.2479E-01  0.6887E+00
      1.080  0.1512E-01  0.1881E-01  0.4838E+00
      1.169  0.3722E-01  0.3740E-01  0.4074E+00
      1.258  0.4574E-01  0.4279E-01  0.2759E+00
      1.347  0.1196E-01  0.1491E-01  0.1003E+00
      1.437  0.8079E-02  0.1489E-01  0.1302E+00
      1.526  0.2113E-01  0.3187E-01  0.1685E+00
      1.615  0.4956E-01  0.5425E-01  0.2303E+00
      1.705  0.7185E-01  0.6752E-01  0.2846E+00
      1.794  0.6017E-01  0.6674E-01  0.2528E+00
      1.883  0.3694E-01  0.5264E-01  0.1874E+00
      1.973  0.4163E-01  0.4921E-01  0.2009E+00
      2.062  0.3182E-01  0.3184E-01  0.1345E+00
      2.151  0.7061E-02  0.1468E-01  0.5618E-01
      2.241  0.1030E-01  0.3435E-01  0.4255E-01
      2.330  0.3054E-01  0.7597E-01  0.6749E-01
      2.419  0.2866E-01  0.5860E-01  0.6380E-01
      2.509  0.2479E-01  0.4049E-01  0.8861E-01
      2.598  0.5932E-01  0.8328E-01  0.2159E+00
      2.687  0.5826E-01  0.7889E-01  0.1907E+00
      2.776  0.6476E-01  0.7430E-01  0.2337E+00
      2.866  0.4342E-01  0.4905E-01  0.1812E+00
      2.955  0.1262E-01  0.5496E-01  0.1017E+00
      3.044  0.2297E-01  0.5681E-01  0.1310E+00
      3.134  0.3875E-01  0.8267E-01  0.1345E+00
      3.223  0.6391E-01  0.1108E+00  0.1498E+00
      3.312  0.5030E-01  0.7070E-01  0.9760E-01
      3.402  0.2672E-01  0.4040E-01  0.6664E-01
      3.491  0.1760E-01  0.5259E-01  0.8965E-01
      3.580  0.1665E-01  0.5532E-01  0.9267E-01
      3.670  0.1744E-01  0.5623E-01  0.6213E-01
      3.759  0.1119E-01  0.8317E-01  0.7535E-01
      3.848  0.1971E-01  0.6856E-01  0.6155E-01
      3.937  0.5707E-01  0.9720E-01  0.1151E+00
      4.027  0.7836E-01  0.1345E+00  0.1815E+00
      4.116  0.7456E-01  0.1230E+00  0.1749E+00
      4.205  0.3954E-01  0.9371E-01  0.1154E+00
      4.295  0.8755E-02  0.3519E-01  0.3964E-01
      4.384  0.1908E-01  0.5052E-01  0.6623E-01
      4.473  0.3110E-01  0.8899E-01  0.1106E+00
      4.563  0.1881E-01  0.3922E-01  0.4584E-01
      4.652  0.3415E-01  0.4391E-01  0.5559E-01
      4.741  0.5642E-01  0.7092E-01  0.1071E+00
      4.831  0.3230E-01  0.9000E-01  0.9231E-01
      4.920  0.2951E-01  0.1264E+00  0.1166E+00
      5.009  0.8784E-02  0.4634E-01  0.4636E-01
      5.099  0.6572E-02  0.4266E-02  0.5978E-02
      5.188  0.3242E-01  0.2701E-01  0.3903E-01
      5.277  0.4547E-01  0.6484E-01  0.6423E-01
      5.366  0.5030E-01  0.8499E-01  0.1057E+00
      5.456  0.3406E-01  0.4029E-01  0.6492E-01
      5.545  0.2241E-01  0.2244E-01  0.2726E-01
      5.634  0.7460E-01  0.9110E-01  0.1002E+00
      5.724  0.6374E-01  0.6795E-01  0.9333E-01
      5.813  0.3576E-01  0.3820E-01  0.5285E-01
      5.902  0.1759E-01  0.4079E-01  0.5072E-01
      5.992  0.5578E-01  0.5686E-01  0.7427E-01
      6.081  0.8082E-01  0.3009E-01  0.5828E-01
      6.170  0.5001E-01  0.3593E-02  0.2463E-01
      6.260  0.7102E-01  0.1836E-01  0.3837E-01
      6.349  0.6156E-01  0.2213E-01  0.4116E-01
      6.438  0.1205E+00  0.1914E-01  0.7210E-01
      6.527  0.2118E+00  0.3991E-01  0.1181E+00
      6.617  0.2675E+00  0.6575E-01  0.1436E+00
      6.706  0.3042E+00  0.7853E-01  0.1687E+00
      6.795  0.2173E+00  0.9800E-01  0.1856E+00
      6.885  0.1768E+00  0.1286E+00  0.1795E+00
      6.974  0.1334E+00  0.8737E-01  0.9631E-01
      7.063  0.5965E-01  0.3309E-01  0.3343E-01
      7.153  0.6416E-01  0.5374E-01  0.5108E-01
      7.242  0.1287E+00  0.7783E-01  0.1112E+00
      7.331  0.1725E+00  0.9651E-01  0.1237E+00
      7.421  0.7279E-01  0.7793E-01  0.6458E-01
      7.510  0.2398E-01  0.4589E-01  0.3147E-01
      7.599  0.6789E-01  0.6495E-01  0.4208E-01
      7.689  0.9914E-01  0.9011E-01  0.4998E-01
      7.778  0.4350E-01  0.6973E-01  0.3955E-01
      7.867  0.3940E-01  0.5143E-01  0.5753E-01
      7.956  0.9600E-01  0.9057E-01  0.1103E+00
      8.046  0.1168E+00  0.1510E+00  0.1169E+00
      8.135  0.8907E-01  0.1227E+00  0.7408E-01
      8.224  0.6415E-01  0.8665E-01  0.5252E-01
      8.314  0.3220E-01  0.8103E-01  0.4533E-01
      8.403  0.1832E-01  0.5082E-01  0.2980E-01
      8.492  0.2903E-01  0.8053E-01  0.4793E-01
      8.582  0.5509E-01  0.1722E+00  0.8615E-01
      8.671  0.5374E-01  0.1565E+00  0.8348E-01
      8.760  0.5366E-01  0.1587E+00  0.8410E-01
      8.850  0.6978E-01  0.1296E+00  0.1014E+00
      8.939  0.5589E-01  0.1014E+00  0.6597E-01
      9.028  0.3004E-01  0.1004E+00  0.4592E-01
      9.117  0.3881E-01  0.1323E+00  0.5874E-01
      9.207  0.6148E-01  0.1562E+00  0.6860E-01
      9.296  0.5515E-01  0.1153E+00  0.6627E-01
      9.385  0.4270E-01  0.7560E-01  0.6381E-01
      9.475  0.1351E-01  0.4393E-01  0.3584E-01
      9.564  0.1955E-02  0.3580E-01  0.1331E-01
      9.653  0.6144E-01  0.1015E+00  0.5051E-01
      9.743  0.1137E+00  0.1721E+00  0.9031E-01
      9.832  0.8920E-01  0.1716E+00  0.8478E-01
      9.921  0.9018E-01  0.1093E+00  0.7566E-01
     10.011  0.8617E-01  0.8589E-01  0.5436E-01
     10.100  0.4875E-01  0.8027E-01  0.3598E-01
     10.189  0.5274E-01  0.6606E-01  0.4400E-01
     10.278  0.7631E-01  0.8318E-01  0.5691E-01
     10.368  0.4449E-01  0.6097E-01  0.4126E-01
     10.457  0.5723E-01  0.8177E-01  0.4618E-01
     10.546  0.9493E-01  0.1245E+00  0.6575E-01
     10.636  0.6479E-01  0.1033E+00  0.6897E-01
     10.725  0.7670E-01  0.1385E+00  0.7753E-01
     10.814  0.9328E-01  0.1475E+00  0.7038E-01
     10.904  0.6867E-01  0.1343E+00  0.6689E-01
     10.993  0.5151E-01  0.1140E+00  0.7250E-01
     11.082  0.5576E-01  0.1026E+00  0.7215E-01
     11.172  0.7082E-01  0.1431E+00  0.8435E-01
     11.261  0.7151E-01  0.1674E+00  0.8449E-01
     11.350  0.4006E-01  0.9664E-01  0.4783E-01
     11.440  0.2800E-01  0.8142E-01  0.5051E-01
     11.529  0.3238E-01  0.9052E-01  0.4943E-01
     11.618  0.2968E-01  0.1218E+00  0.6079E-01
     11.707  0.2687E-01  0.2118E+00  0.1410E+00
     11.797  0.3015E-01  0.1617E+00  0.1072E+00
     11.886  0.4496E-01  0.9240E-01  0.4512E-01
     11.975  0.7122E-01  0.1261E+00  0.5622E-01
     12.065  0.5286E-01  0.1098E+00  0.7120E-01
     12.154  0.4129E-01  0.1202E+00  0.8126E-01
     12.243  0.4257E-01  0.1491E+00  0.8233E-01
     12.333  0.2959E-01  0.1226E+00  0.6898E-01
     12.422  0.2696E-01  0.1082E+00  0.5439E-01
     12.511  0.2326E-01  0.1637E+00  0.8544E-01
     12.601  0.3431E-01  0.1877E+00  0.1280E+00
     12.690  0.2587E-01  0.1274E+00  0.8280E-01
     12.779  0.2287E-01  0.1399E+00  0.7658E-01
     12.868  0.5835E-01  0.2207E+00  0.1240E+00
     12.958  0.9861E-01  0.2749E+00  0.1679E+00
     13.047  0.7590E-01  0.2178E+00  0.1369E+00
     13.136  0.4175E-01  0.1395E+00  0.1103E+00
     13.226  0.3651E-01  0.1490E+00  0.1110E+00
     13.315  0.1721E-01  0.1052E+00  0.6690E-01
     13.404  0.2921E-02  0.3529E-01  0.2338E-01
     13.494  0.9169E-02  0.7108E-01  0.5730E-01
     13.583  0.2665E-01  0.1440E+00  0.8957E-01
     13.672  0.2660E-01  0.1626E+00  0.9202E-01
     13.762  0.2898E-01  0.1569E+00  0.7804E-01
     13.851  0.4791E-01  0.2355E+00  0.1036E+00
     13.940  0.4167E-01  0.1975E+00  0.1096E+00
     14.030  0.1186E-01  0.1232E+00  0.9757E-01
     14.119  0.1588E-01  0.1466E+00  0.1116E+00
     14.208  0.2390E-01  0.1703E+00  0.1229E+00
     14.297  0.2620E-01  0.1783E+00  0.1467E+00
     14.387  0.2723E-01  0.1954E+00  0.1714E+00
     14.476  0.2326E-01  0.1598E+00  0.1051E+00
     14.565  0.2365E-01  0.1300E+00  0.7746E-01
     14.655  0.1109E-01  0.5548E-01  0.4419E-01
     14.744  0.2582E-02  0.1555E-01  0.1552E-01
     14.833  0.3859E-03  0.6106E-02  0.2722E-02
     14.923 -0.6914E-04 -0.3033E-04 -0.3206E-03
     15.012 -0.1986E-04 -0.2360E-03 -0.1143E-03
     15.101 -0.6558E-06 -0.1104E-04 -0.4747E-05
     15.191 -0.3884E-08 -0.8817E-07 -0.3776E-07
     15.280 -0.4479E-11 -0.1376E-09 -0.6018E-10
     15.369 -0.1042E-14 -0.4309E-13 -0.1929E-13
     15.458 -0.1697E-19 -0.2435E-17 -0.1163E-17
     15.548  0.0000E+00  0.0000E+00  0.0000E+00
     15.637  0.0000E+00  0.0000E+00  0.0000E+00
     15.726  0.0000E+00  0.0000E+00  0.0000E+00
     15.816  0.0000E+00  0.0000E+00  0.0000E+00
     15.905  0.0000E+00  0.0000E+00  0.0000E+00
     15.994  0.0000E+00  0.0000E+00  0.0000E+00
     15.99433109    -10.79866936  301      0.45012243      1.00000000
    -10.799  0.0000E+00  0.0000E+00  0.0000E+00
    -10.709  0.0000E+00  0.0000E+00  0.0000E+00
    -10.620  0.0000E+00  0.0000E+00  0.0000E+00
    -10.531  0.0000E+00  0.0000E+00  0.0000E+00
    -10.441 -0.2463E-34 -0.2937E-35 -0.2734E-37
    -10.352 -0.4716E-28 -0.5625E-29 -0.5237E-31
    -10.263 -0.1808E-22 -0.2156E-23 -0.2007E-25
    -10.173 -0.1381E-17 -0.1648E-18 -0.1534E-20
    -10.084 -0.2012E-13 -0.2399E-14 -0.2233E-16
     -9.995 -0.5874E-10 -0.7005E-11 -0.6522E-13
     -9.906 -0.3255E-07 -0.3882E-08 -0.3618E-10
     -9.816 -0.3199E-05 -0.3816E-06 -0.3602E-08
     -9.727 -0.4235E-04 -0.5072E-05 -0.6010E-07
     -9.638  0.1059E-03  0.1173E-04 -0.4376E-06
     -9.548  0.8056E-03  0.9397E-04 -0.4070E-06
     -9.459  0.3823E-02  0.4947E-03  0.2822E-04
     -9.370  0.5209E-02  0.6794E-03  0.4146E-04
     -9.280  0.2619E-03  0.2905E-04 -0.1894E-05
     -9.191  0.2690E-02  0.4167E-03  0.7209E-04
     -9.102  0.5673E-02  0.9026E-03  0.1715E-03
     -9.012  0.5662E-02  0.9335E-03  0.2082E-03
     -8.923  0.2766E-02  0.4302E-03  0.8209E-04
     -8.834  0.1143E-02  0.3802E-04 -0.2575E-04
     -8.745  0.7935E-02  0.7228E-03  0.5775E-04
     -8.655  0.3243E-01  0.3868E-02  0.7690E-03
     -8.566  0.1780E-01  0.2428E-02  0.5963E-03
     -8.477  0.4186E-02  0.6454E-03  0.2107E-03
     -8.387  0.2390E-01  0.3501E-02  0.1058E-02
     -8.298  0.2365E-01  0.3332E-02  0.8323E-03
     -8.209  0.1755E-01  0.1968E-02  0.2630E-03
     -8.119  0.9442E-03  0.7859E-04  0.2329E-04
     -8.030  0.4327E-02  0.1498E-02  0.1298E-02
     -7.941  0.3848E-01  0.7407E-02  0.4048E-02
     -7.851  0.4535E-01  0.6556E-02  0.2545E-02
     -7.762  0.3161E-01  0.2722E-02  0.1475E-02
     -7.673  0.5998E-01  0.6148E-02  0.4632E-02
     -7.584  0.1307E-01  0.1626E-02  0.1663E-02
     -7.494  0.7307E-02  0.2664E-03  0.1266E-03
     -7.405  0.5775E-01  0.7028E-02  0.4338E-02
     -7.316  0.8595E-01  0.1598E-01  0.1337E-01
     -7.226  0.5116E-01  0.1007E-01  0.1089E-01
     -7.137  0.6994E-02  0.1952E-02  0.3534E-02
     -7.048  0.2636E-01  0.5649E-02  0.8299E-02
     -6.958  0.9420E-01  0.9591E-02  0.9236E-02
     -6.869  0.5795E-01  0.4942E-02  0.4518E-02
     -6.780  0.5859E-01  0.1526E-01  0.2658E-01
     -6.690  0.8493E-01  0.2037E-01  0.5002E-01
     -6.601  0.7582E-01  0.1026E-01  0.5774E-01
     -6.512  0.1315E+00  0.1085E-01  0.7695E-01
     -6.422  0.1183E+00  0.1743E-01  0.5440E-01
     -6.333  0.8488E-01  0.1824E-01  0.7586E-01
     -6.244  0.1511E+00  0.2481E-01  0.1352E+00
     -6.155  0.1679E+00  0.2785E-01  0.1578E+00
     -6.065  0.1436E+00  0.3209E-01  0.1648E+00
     -5.976  0.7455E-01  0.2498E-01  0.1542E+00
     -5.887  0.1178E+00  0.3346E-01  0.2092E+00
     -5.797  0.2371E+00  0.4884E-01  0.2920E+00
     -5.708  0.1656E+00  0.3958E-01  0.2573E+00
     -5.619  0.1021E+00  0.3153E-01  0.2267E+00
     -5.529  0.7408E-01  0.2151E-01  0.2240E+00
     -5.440  0.1510E+00  0.3831E-01  0.5810E+00
     -5.351  0.3044E+00  0.6616E-01  0.9872E+00
     -5.261  0.3181E+00  0.6355E-01  0.8736E+00
     -5.172  0.1747E+00  0.5579E-01  0.7077E+00
     -5.083  0.1917E+00  0.5689E-01  0.9257E+00
     -4.994  0.1549E+00  0.4206E-01  0.7299E+00
     -4.904  0.7821E-01  0.4024E-01  0.6024E+00
     -4.815  0.6978E-01  0.3555E-01  0.5890E+00
     -4.726  0.4095E-01  0.2120E-01  0.3928E+00
     -4.636  0.2622E-01  0.1946E-01  0.3930E+00
     -4.547  0.4630E-01  0.4431E-01  0.8797E+00
     -4.458  0.4096E-01  0.5111E-01  0.1013E+01
     -4.368  0.2196E-01  0.4309E-01  0.8383E+00
     -4.279  0.1391E-01  0.4734E-01  0.9924E+00
     -4.190  0.1793E-01  0.4120E-01  0.9123E+00
     -4.100  0.3634E-01  0.4397E-01  0.9571E+00
     -4.011  0.3385E-01  0.4105E-01  0.9462E+00
     -3.922  0.2310E-01  0.2906E-01  0.7679E+00
     -3.832  0.2990E-01  0.3519E-01  0.1016E+01
     -3.743  0.4006E-01  0.3559E-01  0.1022E+01
     -3.654  0.3819E-01  0.3040E-01  0.8550E+00
     -3.565  0.2630E-01  0.2257E-01  0.8155E+00
     -3.475  0.2529E-01  0.2553E-01  0.9636E+00
     -3.386  0.2651E-01  0.2554E-01  0.1009E+01
     -3.297  0.3198E-01  0.3175E-01  0.1104E+01
     -3.207  0.4594E-01  0.4596E-01  0.1419E+01
     -3.118  0.4717E-01  0.5041E-01  0.1721E+01
     -3.029  0.3926E-01  0.5023E-01  0.1667E+01
     -2.939  0.3371E-01  0.4804E-01  0.1535E+01
     -2.850  0.4896E-01  0.5961E-01  0.1644E+01